VARIABLES="X","Y","T","STRL","U","V","P"
 ZONE T="FLOW",I=  81 , J=  81 , F=POINT
    0.00000   0.00000   0.53905         0.00000E+00         0.00000E+00         0.00000E+00        -5.14834E+02
    0.01250   0.00000   0.53903         0.00000E+00         0.00000E+00         0.00000E+00        -5.72679E+02
    0.02500   0.00000   0.53904         0.00000E+00         0.00000E+00         0.00000E+00        -6.30242E+02
    0.03750   0.00000   0.53909         0.00000E+00         0.00000E+00         0.00000E+00        -6.29848E+02
    0.05000   0.00000   0.53919         0.00000E+00         0.00000E+00         0.00000E+00        -6.29678E+02
    0.06250   0.00000   0.53933         0.00000E+00         0.00000E+00         0.00000E+00        -6.29587E+02
    0.07500   0.00000   0.53951         0.00000E+00         0.00000E+00         0.00000E+00        -6.29531E+02
    0.08750   0.00000   0.53974         0.00000E+00         0.00000E+00         0.00000E+00        -6.29495E+02
    0.10000   0.00000   0.54001         0.00000E+00         0.00000E+00         0.00000E+00        -6.29471E+02
    0.11250   0.00000   0.54030         0.00000E+00         0.00000E+00         0.00000E+00        -6.29454E+02
    0.12500   0.00000   0.54061         0.00000E+00         0.00000E+00         0.00000E+00        -6.29444E+02
    0.13750   0.00000   0.54094         0.00000E+00         0.00000E+00         0.00000E+00        -6.29438E+02
    0.15000   0.00000   0.54129         0.00000E+00         0.00000E+00         0.00000E+00        -6.29436E+02
    0.16250   0.00000   0.54166         0.00000E+00         0.00000E+00         0.00000E+00        -6.29437E+02
    0.17500   0.00000   0.54205         0.00000E+00         0.00000E+00         0.00000E+00        -6.29440E+02
    0.18750   0.00000   0.54249         0.00000E+00         0.00000E+00         0.00000E+00        -6.29445E+02
    0.20000   0.00000   0.54296         0.00000E+00         0.00000E+00         0.00000E+00        -6.29453E+02
    0.21250   0.00000   0.54347         0.00000E+00         0.00000E+00         0.00000E+00        -6.29463E+02
    0.22500   0.00000   0.54403         0.00000E+00         0.00000E+00         0.00000E+00        -6.29474E+02
    0.23750   0.00000   0.54463         0.00000E+00         0.00000E+00         0.00000E+00        -6.29487E+02
    0.25000   0.00000   0.54528         0.00000E+00         0.00000E+00         0.00000E+00        -6.29501E+02
    0.26250   0.00000   0.54595         0.00000E+00         0.00000E+00         0.00000E+00        -6.29518E+02
    0.27500   0.00000   0.54664         0.00000E+00         0.00000E+00         0.00000E+00        -6.29535E+02
    0.28750   0.00000   0.54734         0.00000E+00         0.00000E+00         0.00000E+00        -6.29554E+02
    0.30000   0.00000   0.54803         0.00000E+00         0.00000E+00         0.00000E+00        -6.29574E+02
    0.31250   0.00000   0.54873         0.00000E+00         0.00000E+00         0.00000E+00        -6.29595E+02
    0.32500   0.00000   0.54947         0.00000E+00         0.00000E+00         0.00000E+00        -6.29618E+02
    0.33750   0.00000   0.55027         0.00000E+00         0.00000E+00         0.00000E+00        -6.29643E+02
    0.35000   0.00000   0.55114         0.00000E+00         0.00000E+00         0.00000E+00        -6.29669E+02
    0.36250   0.00000   0.55207         0.00000E+00         0.00000E+00         0.00000E+00        -6.29697E+02
    0.37500   0.00000   0.55302         0.00000E+00         0.00000E+00         0.00000E+00        -6.29726E+02
    0.38750   0.00000   0.55396         0.00000E+00         0.00000E+00         0.00000E+00        -6.29756E+02
    0.40000   0.00000   0.55487         0.00000E+00         0.00000E+00         0.00000E+00        -6.29788E+02
    0.41250   0.00000   0.55578         0.00000E+00         0.00000E+00         0.00000E+00        -6.29821E+02
    0.42500   0.00000   0.55671         0.00000E+00         0.00000E+00         0.00000E+00        -6.29856E+02
    0.43750   0.00000   0.55769         0.00000E+00         0.00000E+00         0.00000E+00        -6.29893E+02
    0.45000   0.00000   0.55871         0.00000E+00         0.00000E+00         0.00000E+00        -6.29931E+02
    0.46250   0.00000   0.55975         0.00000E+00         0.00000E+00         0.00000E+00        -6.29971E+02
    0.47500   0.00000   0.56082         0.00000E+00         0.00000E+00         0.00000E+00        -6.30013E+02
    0.48750   0.00000   0.56188         0.00000E+00         0.00000E+00         0.00000E+00        -6.30057E+02
    0.50000   0.00000   0.56297         0.00000E+00         0.00000E+00         0.00000E+00        -6.30102E+02
    0.51250   0.00000   0.56410         0.00000E+00         0.00000E+00         0.00000E+00        -6.30150E+02
    0.52500   0.00000   0.56531         0.00000E+00         0.00000E+00         0.00000E+00        -6.30200E+02
    0.53750   0.00000   0.56659         0.00000E+00         0.00000E+00         0.00000E+00        -6.30252E+02
    0.55000   0.00000   0.56793         0.00000E+00         0.00000E+00         0.00000E+00        -6.30307E+02
    0.56250   0.00000   0.56928         0.00000E+00         0.00000E+00         0.00000E+00        -6.30364E+02
    0.57500   0.00000   0.57061         0.00000E+00         0.00000E+00         0.00000E+00        -6.30423E+02
    0.58750   0.00000   0.57192         0.00000E+00         0.00000E+00         0.00000E+00        -6.30485E+02
    0.60000   0.00000   0.57321         0.00000E+00         0.00000E+00         0.00000E+00        -6.30550E+02
    0.61250   0.00000   0.57451         0.00000E+00         0.00000E+00         0.00000E+00        -6.30617E+02
    0.62500   0.00000   0.57583         0.00000E+00         0.00000E+00         0.00000E+00        -6.30687E+02
    0.63750   0.00000   0.57718         0.00000E+00         0.00000E+00         0.00000E+00        -6.30761E+02
    0.65000   0.00000   0.57855         0.00000E+00         0.00000E+00         0.00000E+00        -6.30838E+02
    0.66250   0.00000   0.57993         0.00000E+00         0.00000E+00         0.00000E+00        -6.30919E+02
    0.67500   0.00000   0.58133         0.00000E+00         0.00000E+00         0.00000E+00        -6.31003E+02
    0.68750   0.00000   0.58272         0.00000E+00         0.00000E+00         0.00000E+00        -6.31092E+02
    0.70000   0.00000   0.58411         0.00000E+00         0.00000E+00         0.00000E+00        -6.31185E+02
    0.71250   0.00000   0.58551         0.00000E+00         0.00000E+00         0.00000E+00        -6.31283E+02
    0.72500   0.00000   0.58692         0.00000E+00         0.00000E+00         0.00000E+00        -6.31386E+02
    0.73750   0.00000   0.58837         0.00000E+00         0.00000E+00         0.00000E+00        -6.31495E+02
    0.75000   0.00000   0.58985         0.00000E+00         0.00000E+00         0.00000E+00        -6.31611E+02
    0.76250   0.00000   0.59138         0.00000E+00         0.00000E+00         0.00000E+00        -6.31733E+02
    0.77500   0.00000   0.59297         0.00000E+00         0.00000E+00         0.00000E+00        -6.31863E+02
    0.78750   0.00000   0.59458         0.00000E+00         0.00000E+00         0.00000E+00        -6.32002E+02
    0.80000   0.00000   0.59621         0.00000E+00         0.00000E+00         0.00000E+00        -6.32150E+02
    0.81250   0.00000   0.59783         0.00000E+00         0.00000E+00         0.00000E+00        -6.32309E+02
    0.82500   0.00000   0.59943         0.00000E+00         0.00000E+00         0.00000E+00        -6.32479E+02
    0.83750   0.00000   0.60101         0.00000E+00         0.00000E+00         0.00000E+00        -6.32664E+02
    0.85000   0.00000   0.60257         0.00000E+00         0.00000E+00         0.00000E+00        -6.32864E+02
    0.86250   0.00000   0.60412         0.00000E+00         0.00000E+00         0.00000E+00        -6.33084E+02
    0.87500   0.00000   0.60567         0.00000E+00         0.00000E+00         0.00000E+00        -6.33327E+02
    0.88750   0.00000   0.60723         0.00000E+00         0.00000E+00         0.00000E+00        -6.33598E+02
    0.90000   0.00000   0.60881         0.00000E+00         0.00000E+00         0.00000E+00        -6.33904E+02
    0.91250   0.00000   0.61040         0.00000E+00         0.00000E+00         0.00000E+00        -6.34255E+02
    0.92500   0.00000   0.61200         0.00000E+00         0.00000E+00         0.00000E+00        -6.34668E+02
    0.93750   0.00000   0.61360         0.00000E+00         0.00000E+00         0.00000E+00        -6.35168E+02
    0.95000   0.00000   0.61520         0.00000E+00         0.00000E+00         0.00000E+00        -6.35804E+02
    0.96250   0.00000   0.61678         0.00000E+00         0.00000E+00         0.00000E+00        -6.36680E+02
    0.97500   0.00000   0.61838         0.00000E+00         0.00000E+00         0.00000E+00        -6.38072E+02
    0.98750   0.00000   0.62003         0.00000E+00         0.00000E+00         0.00000E+00        -5.73148E+02
    1.00000   0.00000   0.62176         0.00000E+00         0.00000E+00         0.00000E+00        -5.07348E+02
    0.00000   0.01250   0.53656         0.00000E+00         0.00000E+00         0.00000E+00        -5.72702E+02
    0.01250   0.01250   0.53655        -2.46119E-05        -1.22521E-01         1.50731E-01        -6.58154E+02
    0.02500   0.01250   0.53656        -1.20069E-05        -4.38438E-02        -3.75031E-02        -7.43333E+02
    0.03750   0.01250   0.53660        -6.46832E-06        -2.02056E-02        -9.76487E-03        -7.42932E+02
    0.05000   0.01250   0.53670        -3.87334E-06        -1.01190E-02        -3.46976E-03        -7.42743E+02
    0.06250   0.01250   0.53684        -2.42310E-06        -4.85093E-03        -1.61257E-03        -7.42649E+02
    0.07500   0.01250   0.53703        -1.46798E-06        -1.64490E-03        -9.18455E-04        -7.42609E+02
    0.08750   0.01250   0.53726        -7.56389E-07         5.53258E-04        -6.03239E-04        -7.42602E+02
    0.10000   0.01250   0.53754        -1.78293E-07         2.20401E-03        -4.37608E-04        -7.42619E+02
    0.11250   0.01250   0.53784         3.21494E-07         3.53221E-03        -3.41338E-04        -7.42655E+02
    0.12500   0.01250   0.53816         7.74358E-07         4.65869E-03        -2.82004E-04        -7.42706E+02
    0.13750   0.01250   0.53850         1.20178E-06         5.65504E-03        -2.45348E-04        -7.42770E+02
    0.15000   0.01250   0.53884         1.62187E-06         6.56726E-03        -2.23156E-04        -7.42847E+02
    0.16250   0.01250   0.53920         2.04688E-06         7.42322E-03        -2.09499E-04        -7.42934E+02
    0.17500   0.01250   0.53960         2.48474E-06         8.23909E-03        -2.00727E-04        -7.43032E+02
    0.18750   0.01250   0.54003         2.93993E-06         9.02313E-03        -1.94206E-04        -7.43140E+02
    0.20000   0.01250   0.54052         3.41272E-06         9.77772E-03        -1.88500E-04        -7.43258E+02
    0.21250   0.01250   0.54105         3.90269E-06         1.05037E-02        -1.83578E-04        -7.43384E+02
    0.22500   0.01250   0.54163         4.41078E-06         1.12026E-02        -1.79555E-04        -7.43520E+02
    0.23750   0.01250   0.54224         4.93795E-06         1.18761E-02        -1.75734E-04        -7.43664E+02
    0.25000   0.01250   0.54289         5.48173E-06         1.25262E-02        -1.71577E-04        -7.43817E+02
    0.26250   0.01250   0.54356         6.04004E-06         1.31551E-02        -1.67686E-04        -7.43977E+02
    0.27500   0.01250   0.54425         6.61413E-06         1.37663E-02        -1.65034E-04        -7.44146E+02
    0.28750   0.01250   0.54494         7.20884E-06         1.43643E-02        -1.65805E-04        -7.44321E+02
    0.30000   0.01250   0.54564         7.84247E-06         1.49563E-02        -1.71667E-04        -7.44505E+02
    0.31250   0.01250   0.54635         8.53531E-06         1.55478E-02        -1.80666E-04        -7.44695E+02
    0.32500   0.01250   0.54710         9.29490E-06         1.61393E-02        -1.89775E-04        -7.44893E+02
    0.33750   0.01250   0.54791         1.01200E-05         1.67262E-02        -1.95050E-04        -7.45099E+02
    0.35000   0.01250   0.54878         1.09847E-05         1.72981E-02        -1.93067E-04        -7.45311E+02
    0.36250   0.01250   0.54970         1.18546E-05         1.78443E-02        -1.86448E-04        -7.45531E+02
    0.37500   0.01250   0.55065         1.27214E-05         1.83624E-02        -1.80779E-04        -7.45757E+02
    0.38750   0.01250   0.55159         1.35985E-05         1.88577E-02        -1.81506E-04        -7.45990E+02
    0.40000   0.01250   0.55252         1.45312E-05         1.93419E-02        -1.89324E-04        -7.46229E+02
    0.41250   0.01250   0.55345         1.55452E-05         1.98225E-02        -1.99924E-04        -7.46473E+02
    0.42500   0.01250   0.55440         1.66481E-05         2.03017E-02        -2.09730E-04        -7.46724E+02
    0.43750   0.01250   0.55540         1.78300E-05         2.07766E-02        -2.15705E-04        -7.46981E+02
    0.45000   0.01250   0.55642         1.90649E-05         2.12418E-02        -2.18474E-04        -7.47244E+02
    0.46250   0.01250   0.55748         2.03469E-05         2.16955E-02        -2.21275E-04        -7.47512E+02
    0.47500   0.01250   0.55854         2.16840E-05         2.21400E-02        -2.27370E-04        -7.47786E+02
    0.48750   0.01250   0.55962         2.31092E-05         2.25818E-02        -2.39289E-04        -7.48065E+02
    0.50000   0.01250   0.56071         2.46645E-05         2.30276E-02        -2.55192E-04        -7.48350E+02
    0.51250   0.01250   0.56185         2.63647E-05         2.34772E-02        -2.70999E-04        -7.48641E+02
    0.52500   0.01250   0.56306         2.82033E-05         2.39234E-02        -2.81424E-04        -7.48937E+02
    0.53750   0.01250   0.56436         3.01256E-05         2.43509E-02        -2.83756E-04        -7.49239E+02
    0.55000   0.01250   0.56570         3.20842E-05         2.47474E-02        -2.82277E-04        -7.49546E+02
    0.56250   0.01250   0.56706         3.40759E-05         2.51108E-02        -2.83226E-04        -7.49858E+02
    0.57500   0.01250   0.56839         3.61375E-05         2.54489E-02        -2.91720E-04        -7.50174E+02
    0.58750   0.01250   0.56970         3.83417E-05         2.57760E-02        -3.07432E-04        -7.50494E+02
    0.60000   0.01250   0.57101         4.07266E-05         2.61011E-02        -3.26445E-04        -7.50818E+02
    0.61250   0.01250   0.57231         4.33131E-05         2.64288E-02        -3.46829E-04        -7.51146E+02
    0.62500   0.01250   0.57364         4.61130E-05         2.67603E-02        -3.66694E-04        -7.51479E+02
    0.63750   0.01250   0.57499         4.91189E-05         2.70932E-02        -3.85474E-04        -7.51815E+02
    0.65000   0.01250   0.57638         5.23334E-05         2.74260E-02        -4.04857E-04        -7.52156E+02
    0.66250   0.01250   0.57777         5.57756E-05         2.77598E-02        -4.26299E-04        -7.52501E+02
    0.67500   0.01250   0.57918         5.94725E-05         2.80978E-02        -4.50674E-04        -7.52850E+02
    0.68750   0.01250   0.58059         6.34601E-05         2.84447E-02        -4.79562E-04        -7.53203E+02
    0.70000   0.01250   0.58199         6.77953E-05         2.88084E-02        -5.14640E-04        -7.53561E+02
    0.71250   0.01250   0.58340         7.25474E-05         2.91972E-02        -5.55791E-04        -7.53924E+02
    0.72500   0.01250   0.58483         7.77772E-05         2.96177E-02        -6.02419E-04        -7.54291E+02
    0.73750   0.01250   0.58628         8.35488E-05         3.00756E-02        -6.54856E-04        -7.54664E+02
    0.75000   0.01250   0.58777         8.99342E-05         3.05754E-02        -7.13132E-04        -7.55044E+02
    0.76250   0.01250   0.58931         9.70037E-05         3.11209E-02        -7.76533E-04        -7.55429E+02
    0.77500   0.01250   0.59090         1.04821E-04         3.17155E-02        -8.47230E-04        -7.55822E+02
    0.78750   0.01250   0.59252         1.13503E-04         3.23695E-02        -9.30342E-04        -7.56222E+02
    0.80000   0.01250   0.59415         1.23223E-04         3.31011E-02        -1.03084E-03        -7.56632E+02
    0.81250   0.01250   0.59578         1.34207E-04         3.39371E-02        -1.15498E-03        -7.57051E+02
    0.82500   0.01250   0.59739         1.46772E-04         3.49154E-02        -1.31187E-03        -7.57481E+02
    0.83750   0.01250   0.59898         1.61356E-04         3.60879E-02        -1.51140E-03        -7.57925E+02
    0.85000   0.01250   0.60055         1.78511E-04         3.75193E-02        -1.76577E-03        -7.58385E+02
    0.86250   0.01250   0.60211         1.98976E-04         3.92938E-02        -2.09549E-03        -7.58865E+02
    0.87500   0.01250   0.60368         2.23799E-04         4.15275E-02        -2.53392E-03        -7.59370E+02
    0.88750   0.01250   0.60525         2.54519E-04         4.43884E-02        -3.13590E-03        -7.59907E+02
    0.90000   0.01250   0.60684         2.93504E-04         4.81296E-02        -3.99916E-03        -7.60485E+02
    0.91250   0.01250   0.60844         3.44651E-04         5.31554E-02        -5.31192E-03        -7.61118E+02
    0.92500   0.01250   0.61004         4.14876E-04         6.01459E-02        -7.47200E-03        -7.61826E+02
    0.93750   0.01250   0.61164         5.17720E-04         7.03112E-02        -1.14455E-02        -7.62642E+02
    0.95000   0.01250   0.61324         6.83602E-04         8.59439E-02        -1.99988E-02        -7.63618E+02
    0.96250   0.01250   0.61483         9.93677E-04         1.11636E-01        -4.24810E-02        -7.64853E+02
    0.97500   0.01250   0.61643         1.70843E-03         1.56781E-01        -1.15390E-01        -7.66531E+02
    0.98750   0.01250   0.61809         3.81511E-03         2.39010E-01         6.76921E-02        -6.70315E+02
    1.00000   0.01250   0.61983         0.00000E+00         0.00000E+00         0.00000E+00        -5.73119E+02
    0.00000   0.02500   0.53396         0.00000E+00         0.00000E+00         0.00000E+00        -6.30280E+02
    0.01250   0.02500   0.53395        -3.25838E-05        -3.86547E-02         2.21837E-01        -7.41662E+02
    0.02500   0.02500   0.53395        -2.31768E-05        -3.01093E-02        -3.40298E-02        -8.52857E+02
    0.03750   0.02500   0.53400        -1.50876E-05        -1.74883E-02        -1.65627E-02        -8.52560E+02
    0.05000   0.02500   0.53410        -8.92567E-06        -8.97800E-03        -9.33954E-03        -8.52394E+02
    0.06250   0.02500   0.53425        -3.92369E-06        -3.35461E-03        -6.20072E-03        -8.52317E+02
    0.07500   0.02500   0.53444         5.27117E-07         5.97830E-04        -4.71028E-03        -8.52300E+02
    0.08750   0.02500   0.53468         4.78708E-06         3.58554E-03        -3.92947E-03        -8.52326E+02
    0.10000   0.02500   0.53496         9.05779E-06         5.99429E-03        -3.48098E-03        -8.52386E+02
    0.11250   0.02500   0.53527         1.34563E-05         8.03968E-03        -3.20405E-03        -8.52474E+02
    0.12500   0.02500   0.53559         1.80568E-05         9.84819E-03        -3.02597E-03        -8.52585E+02
    0.13750   0.02500   0.53592         2.29154E-05         1.14989E-02        -2.91206E-03        -8.52719E+02
    0.15000   0.02500   0.53626         2.80822E-05         1.30438E-02        -2.84019E-03        -8.52872E+02
    0.16250   0.02500   0.53662         3.35913E-05         1.45153E-02        -2.79255E-03        -8.53045E+02
    0.17500   0.02500   0.53702         3.94603E-05         1.59321E-02        -2.75629E-03        -8.53235E+02
    0.18750   0.02500   0.53746         4.56903E-05         1.73033E-02        -2.72144E-03        -8.53443E+02
    0.20000   0.02500   0.53797         5.22632E-05         1.86306E-02        -2.68274E-03        -8.53667E+02
    0.21250   0.02500   0.53852         5.91558E-05         1.99138E-02        -2.64073E-03        -8.53908E+02
    0.22500   0.02500   0.53911         6.63495E-05         2.11540E-02        -2.59746E-03        -8.54165E+02
    0.23750   0.02500   0.53974         7.38296E-05         2.23534E-02        -2.55422E-03        -8.54437E+02
    0.25000   0.02500   0.54039         8.15837E-05         2.35160E-02        -2.51228E-03        -8.54723E+02
    0.26250   0.02500   0.54106         8.96052E-05         2.46467E-02        -2.47376E-03        -8.55024E+02
    0.27500   0.02500   0.54174         9.78972E-05         2.57504E-02        -2.44159E-03        -8.55339E+02
    0.28750   0.02500   0.54244         1.06476E-04         2.68329E-02        -2.42016E-03        -8.55668E+02
    0.30000   0.02500   0.54314         1.15383E-04         2.79002E-02        -2.41112E-03        -8.56010E+02
    0.31250   0.02500   0.54386         1.24656E-04         2.89557E-02        -2.40814E-03        -8.56365E+02
    0.32500   0.02500   0.54462         1.34298E-04         2.99988E-02        -2.40111E-03        -8.56734E+02
    0.33750   0.02500   0.54544         1.44270E-04         3.10232E-02        -2.37878E-03        -8.57115E+02
    0.35000   0.02500   0.54631         1.54477E-04         3.20185E-02        -2.33448E-03        -8.57509E+02
    0.36250   0.02500   0.54723         1.64808E-04         3.29755E-02        -2.27583E-03        -8.57915E+02
    0.37500   0.02500   0.54818         1.75216E-04         3.38914E-02        -2.21858E-03        -8.58333E+02
    0.38750   0.02500   0.54913         1.85727E-04         3.47707E-02        -2.17732E-03        -8.58763E+02
    0.40000   0.02500   0.55007         1.96435E-04         3.56226E-02        -2.15502E-03        -8.59202E+02
    0.41250   0.02500   0.55103         2.07408E-04         3.64549E-02        -2.14256E-03        -8.59653E+02
    0.42500   0.02500   0.55200         2.18665E-04         3.72705E-02        -2.12971E-03        -8.60114E+02
    0.43750   0.02500   0.55301         2.30175E-04         3.80685E-02        -2.10867E-03        -8.60585E+02
    0.45000   0.02500   0.55404         2.41871E-04         3.88460E-02        -2.08028E-03        -8.61065E+02
    0.46250   0.02500   0.55510         2.53723E-04         3.96019E-02        -2.05219E-03        -8.61556E+02
    0.47500   0.02500   0.55617         2.65748E-04         4.03383E-02        -2.03295E-03        -8.62055E+02
    0.48750   0.02500   0.55725         2.78018E-04         4.10606E-02        -2.02720E-03        -8.62564E+02
    0.50000   0.02500   0.55836         2.90613E-04         4.17727E-02        -2.02828E-03        -8.63082E+02
    0.51250   0.02500   0.55951         3.03534E-04         4.24723E-02        -2.02242E-03        -8.63608E+02
    0.52500   0.02500   0.56072         3.16690E-04         4.31497E-02        -1.99420E-03        -8.64143E+02
    0.53750   0.02500   0.56202         3.29873E-04         4.37893E-02        -1.93775E-03        -8.64687E+02
    0.55000   0.02500   0.56337         3.42895E-04         4.43782E-02        -1.86589E-03        -8.65238E+02
    0.56250   0.02500   0.56473         3.55698E-04         4.49131E-02        -1.79880E-03        -8.65796E+02
    0.57500   0.02500   0.56608         3.68363E-04         4.54011E-02        -1.75305E-03        -8.66360E+02
    0.58750   0.02500   0.56740         3.81076E-04         4.58552E-02        -1.73050E-03        -8.66931E+02
    0.60000   0.02500   0.56871         3.93962E-04         4.62861E-02        -1.72196E-03        -8.67507E+02
    0.61250   0.02500   0.57002         4.07091E-04         4.67003E-02        -1.71959E-03        -8.68088E+02
    0.62500   0.02500   0.57136         4.20482E-04         4.71005E-02        -1.71637E-03        -8.68674E+02
    0.63750   0.02500   0.57273         4.34100E-04         4.74862E-02        -1.70967E-03        -8.69265E+02
    0.65000   0.02500   0.57412         4.47922E-04         4.78572E-02        -1.70303E-03        -8.69861E+02
    0.66250   0.02500   0.57553         4.61969E-04         4.82153E-02        -1.70094E-03        -8.70461E+02
    0.67500   0.02500   0.57694         4.76292E-04         4.85640E-02        -1.70725E-03        -8.71066E+02
    0.68750   0.02500   0.57836         4.90979E-04         4.89092E-02        -1.72669E-03        -8.71676E+02
    0.70000   0.02500   0.57978         5.06172E-04         4.92588E-02        -1.76311E-03        -8.72289E+02
    0.71250   0.02500   0.58121         5.22039E-04         4.96211E-02        -1.81570E-03        -8.72907E+02
    0.72500   0.02500   0.58265         5.38723E-04         5.00033E-02        -1.88160E-03        -8.73530E+02
    0.73750   0.02500   0.58411         5.56354E-04         5.04109E-02        -1.95912E-03        -8.74157E+02
    0.75000   0.02500   0.58562         5.75057E-04         5.08485E-02        -2.04650E-03        -8.74790E+02
    0.76250   0.02500   0.58717         5.94940E-04         5.13200E-02        -2.14250E-03        -8.75429E+02
    0.77500   0.02500   0.58876         6.16114E-04         5.18308E-02        -2.25382E-03        -8.76073E+02
    0.78750   0.02500   0.59039         6.38826E-04         5.23931E-02        -2.39540E-03        -8.76725E+02
    0.80000   0.02500   0.59203         6.63495E-04         5.30286E-02        -2.58433E-03        -8.77384E+02
    0.81250   0.02500   0.59366         6.90738E-04         5.37693E-02        -2.84119E-03        -8.78051E+02
    0.82500   0.02500   0.59528         7.21438E-04         5.46607E-02        -3.19200E-03        -8.78729E+02
    0.83750   0.02500   0.59688         7.56814E-04         5.57624E-02        -3.66469E-03        -8.79419E+02
    0.85000   0.02500   0.59846         7.98418E-04         5.71496E-02        -4.29341E-03        -8.80125E+02
    0.86250   0.02500   0.60003         8.48312E-04         5.89187E-02        -5.13202E-03        -8.80850E+02
    0.87500   0.02500   0.60160         9.09359E-04         6.11978E-02        -6.26712E-03        -8.81601E+02
    0.88750   0.02500   0.60319         9.85712E-04         6.41640E-02        -7.84010E-03        -8.82384E+02
    0.90000   0.02500   0.60478         1.08366E-03         6.80699E-02        -1.00942E-02        -8.83211E+02
    0.91250   0.02500   0.60639         1.21324E-03         7.32848E-02        -1.34672E-02        -8.84094E+02
    0.92500   0.02500   0.60800         1.39139E-03         8.03512E-02        -1.87838E-02        -8.85055E+02
    0.93750   0.02500   0.60961         1.64832E-03         9.00335E-02        -2.76901E-02        -8.86120E+02
    0.95000   0.02500   0.61121         2.04144E-03         1.03221E-01        -4.36322E-02        -8.87327E+02
    0.96250   0.02500   0.61281         2.68637E-03         1.19995E-01        -7.38418E-02        -8.88722E+02
    0.97500   0.02500   0.61442         3.82151E-03         1.34697E-01        -1.31609E-01        -8.90314E+02
    0.98750   0.02500   0.61609         5.90033E-03         1.12583E-01         1.52768E-01        -7.64573E+02
    1.00000   0.02500   0.61784         0.00000E+00         0.00000E+00         0.00000E+00        -6.37990E+02
    0.00000   0.03750   0.53118         0.00000E+00         0.00000E+00         0.00000E+00        -6.29880E+02
    0.01250   0.03750   0.53117        -3.31180E-05        -8.03696E-03         2.42436E-01        -7.37874E+02
    0.02500   0.03750   0.53118        -2.67769E-05        -1.24049E-02        -2.62044E-02        -8.45790E+02
    0.03750   0.03750   0.53123        -1.90123E-05        -9.19316E-03        -1.75726E-02        -8.45655E+02
    0.05000   0.03750   0.53134        -1.13689E-05        -5.10004E-03        -1.24295E-02        -8.45566E+02
    0.06250   0.03750   0.53150        -4.00966E-06        -1.49697E-03        -9.54506E-03        -8.45525E+02
    0.07500   0.03750   0.53170         3.26040E-06         1.48631E-03        -7.90755E-03        -8.45525E+02
    0.08750   0.03750   0.53194         1.06585E-05         3.97488E-03        -6.93805E-03        -8.45559E+02
    0.10000   0.03750   0.53221         1.83492E-05         6.10748E-03        -6.33393E-03        -8.45622E+02
    0.11250   0.03750   0.53251         2.64488E-05         7.98999E-03        -5.94032E-03        -8.45710E+02
    0.12500   0.03750   0.53282         3.50419E-05         9.69643E-03        -5.67738E-03        -8.45820E+02
    0.13750   0.03750   0.53315         4.41990E-05         1.12777E-02        -5.50281E-03        -8.45951E+02
    0.15000   0.03750   0.53349         5.39847E-05         1.27683E-02        -5.38727E-03        -8.46102E+02
    0.16250   0.03750   0.53386         6.44433E-05         1.41915E-02        -5.30616E-03        -8.46270E+02
    0.17500   0.03750   0.53426         7.55956E-05         1.55616E-02        -5.24080E-03        -8.46456E+02
    0.18750   0.03750   0.53472         8.74371E-05         1.68864E-02        -5.17624E-03        -8.46659E+02
    0.20000   0.03750   0.53524         9.99338E-05         1.81690E-02        -5.10459E-03        -8.46878E+02
    0.21250   0.03750   0.53581         1.13043E-04         1.94106E-02        -5.02683E-03        -8.47113E+02
    0.22500   0.03750   0.53641         1.26731E-04         2.06129E-02        -4.94681E-03        -8.47363E+02
    0.23750   0.03750   0.53705         1.40970E-04         2.17784E-02        -4.86823E-03        -8.47628E+02
    0.25000   0.03750   0.53770         1.55746E-04         2.29118E-02        -4.79426E-03        -8.47907E+02
    0.26250   0.03750   0.53837         1.71053E-04         2.40175E-02        -4.72736E-03        -8.48201E+02
    0.27500   0.03750   0.53906         1.86896E-04         2.50997E-02        -4.67035E-03        -8.48508E+02
    0.28750   0.03750   0.53975         2.03297E-04         2.61619E-02        -4.62713E-03        -8.48828E+02