VARIABLES="X","Y","T","STRL","U","V","P"
 ZONE T="FLOW",I= 101 , J= 101 , F=POINT
    0.00000   0.00000   0.53905         0.00000E+00         0.00000E+00         0.00000E+00         8.90956E+02
    0.01000   0.00000   0.53903         0.00000E+00         0.00000E+00         0.00000E+00        -1.38502E+03
    0.02000   0.00000   0.53903         0.00000E+00         0.00000E+00         0.00000E+00        -3.65617E+03
    0.03000   0.00000   0.53905         0.00000E+00         0.00000E+00         0.00000E+00        -3.64783E+03
    0.04000   0.00000   0.53911         0.00000E+00         0.00000E+00         0.00000E+00        -3.64139E+03
    0.05000   0.00000   0.53919         0.00000E+00         0.00000E+00         0.00000E+00        -3.63583E+03
    0.06000   0.00000   0.53930         0.00000E+00         0.00000E+00         0.00000E+00        -3.63075E+03
    0.07000   0.00000   0.53943         0.00000E+00         0.00000E+00         0.00000E+00        -3.62598E+03
    0.08000   0.00000   0.53960         0.00000E+00         0.00000E+00         0.00000E+00        -3.62144E+03
    0.09000   0.00000   0.53979         0.00000E+00         0.00000E+00         0.00000E+00        -3.61710E+03
    0.10000   0.00000   0.54001         0.00000E+00         0.00000E+00         0.00000E+00        -3.61295E+03
    0.11000   0.00000   0.54024         0.00000E+00         0.00000E+00         0.00000E+00        -3.60898E+03
    0.12000   0.00000   0.54049         0.00000E+00         0.00000E+00         0.00000E+00        -3.60520E+03
    0.13000   0.00000   0.54074         0.00000E+00         0.00000E+00         0.00000E+00        -3.60159E+03
    0.14000   0.00000   0.54101         0.00000E+00         0.00000E+00         0.00000E+00        -3.59817E+03
    0.15000   0.00000   0.54129         0.00000E+00         0.00000E+00         0.00000E+00        -3.59492E+03
    0.16000   0.00000   0.54158         0.00000E+00         0.00000E+00         0.00000E+00        -3.59185E+03
    0.17000   0.00000   0.54189         0.00000E+00         0.00000E+00         0.00000E+00        -3.58896E+03
    0.18000   0.00000   0.54222         0.00000E+00         0.00000E+00         0.00000E+00        -3.58625E+03
    0.19000   0.00000   0.54258         0.00000E+00         0.00000E+00         0.00000E+00        -3.58370E+03
    0.20000   0.00000   0.54296         0.00000E+00         0.00000E+00         0.00000E+00        -3.58131E+03
    0.21000   0.00000   0.54337         0.00000E+00         0.00000E+00         0.00000E+00        -3.57909E+03
    0.22000   0.00000   0.54380         0.00000E+00         0.00000E+00         0.00000E+00        -3.57702E+03
    0.23000   0.00000   0.54427         0.00000E+00         0.00000E+00         0.00000E+00        -3.57510E+03
    0.24000   0.00000   0.54476         0.00000E+00         0.00000E+00         0.00000E+00        -3.57332E+03
    0.25000   0.00000   0.54528         0.00000E+00         0.00000E+00         0.00000E+00        -3.57169E+03
    0.26000   0.00000   0.54582         0.00000E+00         0.00000E+00         0.00000E+00        -3.57018E+03
    0.27000   0.00000   0.54637         0.00000E+00         0.00000E+00         0.00000E+00        -3.56880E+03
    0.28000   0.00000   0.54692         0.00000E+00         0.00000E+00         0.00000E+00        -3.56754E+03
    0.29000   0.00000   0.54747         0.00000E+00         0.00000E+00         0.00000E+00        -3.56640E+03
    0.30000   0.00000   0.54803         0.00000E+00         0.00000E+00         0.00000E+00        -3.56536E+03
    0.31000   0.00000   0.54859         0.00000E+00         0.00000E+00         0.00000E+00        -3.56443E+03
    0.32000   0.00000   0.54917         0.00000E+00         0.00000E+00         0.00000E+00        -3.56360E+03
    0.33000   0.00000   0.54978         0.00000E+00         0.00000E+00         0.00000E+00        -3.56286E+03
    0.34000   0.00000   0.55044         0.00000E+00         0.00000E+00         0.00000E+00        -3.56222E+03
    0.35000   0.00000   0.55114         0.00000E+00         0.00000E+00         0.00000E+00        -3.56166E+03
    0.36000   0.00000   0.55189         0.00000E+00         0.00000E+00         0.00000E+00        -3.56118E+03
    0.37000   0.00000   0.55264         0.00000E+00         0.00000E+00         0.00000E+00        -3.56078E+03
    0.38000   0.00000   0.55340         0.00000E+00         0.00000E+00         0.00000E+00        -3.56045E+03
    0.39000   0.00000   0.55414         0.00000E+00         0.00000E+00         0.00000E+00        -3.56018E+03
    0.40000   0.00000   0.55487         0.00000E+00         0.00000E+00         0.00000E+00        -3.55999E+03
    0.41000   0.00000   0.55560         0.00000E+00         0.00000E+00         0.00000E+00        -3.55985E+03
    0.42000   0.00000   0.55633         0.00000E+00         0.00000E+00         0.00000E+00        -3.55977E+03
    0.43000   0.00000   0.55709         0.00000E+00         0.00000E+00         0.00000E+00        -3.55975E+03
    0.44000   0.00000   0.55789         0.00000E+00         0.00000E+00         0.00000E+00        -3.55978E+03
    0.45000   0.00000   0.55871         0.00000E+00         0.00000E+00         0.00000E+00        -3.55986E+03
    0.46000   0.00000   0.55954         0.00000E+00         0.00000E+00         0.00000E+00        -3.56000E+03
    0.47000   0.00000   0.56039         0.00000E+00         0.00000E+00         0.00000E+00        -3.56018E+03
    0.48000   0.00000   0.56124         0.00000E+00         0.00000E+00         0.00000E+00        -3.56041E+03
    0.49000   0.00000   0.56210         0.00000E+00         0.00000E+00         0.00000E+00        -3.56069E+03
    0.50000   0.00000   0.56297         0.00000E+00         0.00000E+00         0.00000E+00        -3.56102E+03
    0.51000   0.00000   0.56387         0.00000E+00         0.00000E+00         0.00000E+00        -3.56140E+03
    0.52000   0.00000   0.56481         0.00000E+00         0.00000E+00         0.00000E+00        -3.56183E+03
    0.53000   0.00000   0.56581         0.00000E+00         0.00000E+00         0.00000E+00        -3.56231E+03
    0.54000   0.00000   0.56685         0.00000E+00         0.00000E+00         0.00000E+00        -3.56284E+03
    0.55000   0.00000   0.56793         0.00000E+00         0.00000E+00         0.00000E+00        -3.56342E+03
    0.56000   0.00000   0.56901         0.00000E+00         0.00000E+00         0.00000E+00        -3.56406E+03
    0.57000   0.00000   0.57008         0.00000E+00         0.00000E+00         0.00000E+00        -3.56476E+03
    0.58000   0.00000   0.57114         0.00000E+00         0.00000E+00         0.00000E+00        -3.56551E+03
    0.59000   0.00000   0.57218         0.00000E+00         0.00000E+00         0.00000E+00        -3.56632E+03
    0.60000   0.00000   0.57321         0.00000E+00         0.00000E+00         0.00000E+00        -3.56719E+03
    0.61000   0.00000   0.57425         0.00000E+00         0.00000E+00         0.00000E+00        -3.56813E+03
    0.62000   0.00000   0.57530         0.00000E+00         0.00000E+00         0.00000E+00        -3.56914E+03
    0.63000   0.00000   0.57637         0.00000E+00         0.00000E+00         0.00000E+00        -3.57023E+03
    0.64000   0.00000   0.57745         0.00000E+00         0.00000E+00         0.00000E+00        -3.57139E+03
    0.65000   0.00000   0.57855         0.00000E+00         0.00000E+00         0.00000E+00        -3.57264E+03
    0.66000   0.00000   0.57965         0.00000E+00         0.00000E+00         0.00000E+00        -3.57397E+03
    0.67000   0.00000   0.58077         0.00000E+00         0.00000E+00         0.00000E+00        -3.57540E+03
    0.68000   0.00000   0.58188         0.00000E+00         0.00000E+00         0.00000E+00        -3.57693E+03
    0.69000   0.00000   0.58300         0.00000E+00         0.00000E+00         0.00000E+00        -3.57857E+03
    0.70000   0.00000   0.58411         0.00000E+00         0.00000E+00         0.00000E+00        -3.58031E+03
    0.71000   0.00000   0.58523         0.00000E+00         0.00000E+00         0.00000E+00        -3.58218E+03
    0.72000   0.00000   0.58636         0.00000E+00         0.00000E+00         0.00000E+00        -3.58417E+03
    0.73000   0.00000   0.58750         0.00000E+00         0.00000E+00         0.00000E+00        -3.58629E+03
    0.74000   0.00000   0.58866         0.00000E+00         0.00000E+00         0.00000E+00        -3.58855E+03
    0.75000   0.00000   0.58985         0.00000E+00         0.00000E+00         0.00000E+00        -3.59095E+03
    0.76000   0.00000   0.59107         0.00000E+00         0.00000E+00         0.00000E+00        -3.59350E+03
    0.77000   0.00000   0.59233         0.00000E+00         0.00000E+00         0.00000E+00        -3.59620E+03
    0.78000   0.00000   0.59361         0.00000E+00         0.00000E+00         0.00000E+00        -3.59907E+03
    0.79000   0.00000   0.59490         0.00000E+00         0.00000E+00         0.00000E+00        -3.60209E+03
    0.80000   0.00000   0.59621         0.00000E+00         0.00000E+00         0.00000E+00        -3.60528E+03
    0.81000   0.00000   0.59751         0.00000E+00         0.00000E+00         0.00000E+00        -3.60864E+03
    0.82000   0.00000   0.59879         0.00000E+00         0.00000E+00         0.00000E+00        -3.61216E+03
    0.83000   0.00000   0.60006         0.00000E+00         0.00000E+00         0.00000E+00        -3.61585E+03
    0.84000   0.00000   0.60132         0.00000E+00         0.00000E+00         0.00000E+00        -3.61969E+03
    0.85000   0.00000   0.60257         0.00000E+00         0.00000E+00         0.00000E+00        -3.62370E+03
    0.86000   0.00000   0.60381         0.00000E+00         0.00000E+00         0.00000E+00        -3.62786E+03
    0.87000   0.00000   0.60505         0.00000E+00         0.00000E+00         0.00000E+00        -3.63215E+03
    0.88000   0.00000   0.60629         0.00000E+00         0.00000E+00         0.00000E+00        -3.63658E+03
    0.89000   0.00000   0.60755         0.00000E+00         0.00000E+00         0.00000E+00        -3.64113E+03
    0.90000   0.00000   0.60881         0.00000E+00         0.00000E+00         0.00000E+00        -3.64578E+03
    0.91000   0.00000   0.61008         0.00000E+00         0.00000E+00         0.00000E+00        -3.65053E+03
    0.92000   0.00000   0.61136         0.00000E+00         0.00000E+00         0.00000E+00        -3.65537E+03
    0.93000   0.00000   0.61264         0.00000E+00         0.00000E+00         0.00000E+00        -3.66032E+03
    0.94000   0.00000   0.61392         0.00000E+00         0.00000E+00         0.00000E+00        -3.66541E+03
    0.95000   0.00000   0.61520         0.00000E+00         0.00000E+00         0.00000E+00        -3.67074E+03
    0.96000   0.00000   0.61647         0.00000E+00         0.00000E+00         0.00000E+00        -3.67656E+03
    0.97000   0.00000   0.61774         0.00000E+00         0.00000E+00         0.00000E+00        -3.68340E+03
    0.98000   0.00000   0.61904         0.00000E+00         0.00000E+00         0.00000E+00        -3.69256E+03
    0.99000   0.00000   0.62037         0.00000E+00         0.00000E+00         0.00000E+00        -1.11117E+03
    1.00000   0.00000   0.62176         0.00000E+00         0.00000E+00         0.00000E+00         1.47562E+03
    0.00000   0.01000   0.53707         0.00000E+00         0.00000E+00         0.00000E+00        -1.39428E+03
    0.01000   0.01000   0.53705        -1.62587E-02        -1.01154E+00         3.97293E-01        -4.80496E+03
    0.02000   0.01000   0.53705        -7.94585E-03         6.87615E-01        -6.08535E-01        -8.21715E+03
    0.03000   0.01000   0.53707        -4.08799E-03         1.68552E+00        -3.07456E-01        -8.22398E+03
    0.04000   0.01000   0.53712        -1.79672E-03         2.29479E+00        -1.94648E-01        -8.23655E+03
    0.05000   0.01000   0.53720        -1.95015E-04         2.67675E+00        -1.41819E-01        -8.25197E+03
    0.06000   0.01000   0.53731         1.03967E-03         2.92035E+00        -1.12278E-01        -8.26865E+03
    0.07000   0.01000   0.53745         2.05055E-03         3.07787E+00        -9.36533E-02        -8.28573E+03
    0.08000   0.01000   0.53762         2.91275E-03         3.18168E+00        -8.10274E-02        -8.30273E+03
    0.09000   0.01000   0.53782         3.67111E-03         3.25251E+00        -7.21055E-02        -8.31940E+03
    0.10000   0.01000   0.53804         4.35488E-03         3.30396E+00        -6.56538E-02        -8.33562E+03
    0.11000   0.01000   0.53828         4.98420E-03         3.34502E+00        -6.09283E-02        -8.35138E+03
    0.12000   0.01000   0.53853         5.57346E-03         3.38163E+00        -5.74402E-02        -8.36668E+03
    0.13000   0.01000   0.53879         6.13302E-03         3.41767E+00        -5.48479E-02        -8.38158E+03
    0.14000   0.01000   0.53906         6.67043E-03         3.45557E+00        -5.29015E-02        -8.39612E+03
    0.15000   0.01000   0.53934         7.19107E-03         3.49678E+00        -5.14100E-02        -8.41037E+03
    0.16000   0.01000   0.53962         7.69865E-03         3.54199E+00        -5.02249E-02        -8.42439E+03
    0.17000   0.01000   0.53993         8.19558E-03         3.59142E+00        -4.92302E-02        -8.43824E+03
    0.18000   0.01000   0.54026         8.68326E-03         3.64488E+00        -4.83352E-02        -8.45197E+03
    0.19000   0.01000   0.54062         9.16230E-03         3.70195E+00        -4.74696E-02        -8.46564E+03
    0.20000   0.01000   0.54101         9.63267E-03         3.76201E+00        -4.65816E-02        -8.47928E+03
    0.21000   0.01000   0.54144         1.00939E-02         3.82437E+00        -4.56345E-02        -8.49293E+03
    0.22000   0.01000   0.54188         1.05454E-02         3.88824E+00        -4.46027E-02        -8.50662E+03
    0.23000   0.01000   0.54236         1.09860E-02         3.95283E+00        -4.34689E-02        -8.52036E+03
    0.24000   0.01000   0.54286         1.14148E-02         4.01736E+00        -4.22220E-02        -8.53417E+03
    0.25000   0.01000   0.54338         1.18305E-02         4.08104E+00        -4.08567E-02        -8.54806E+03
    0.26000   0.01000   0.54391         1.22319E-02         4.14315E+00        -3.93725E-02        -8.56203E+03
    0.27000   0.01000   0.54446         1.26179E-02         4.20300E+00        -3.77726E-02        -8.57608E+03
    0.28000   0.01000   0.54501         1.29874E-02         4.25996E+00        -3.60627E-02        -8.59021E+03
    0.29000   0.01000   0.54557         1.33392E-02         4.31345E+00        -3.42499E-02        -8.60440E+03
    0.30000   0.01000   0.54612         1.36724E-02         4.36294E+00        -3.23385E-02        -8.61864E+03
    0.31000   0.01000   0.54669         1.39860E-02         4.40793E+00        -3.03278E-02        -8.63293E+03
    0.32000   0.01000   0.54728         1.42790E-02         4.44797E+00        -2.82154E-02        -8.64723E+03
    0.33000   0.01000   0.54789         1.45503E-02         4.48262E+00        -2.59991E-02        -8.66154E+03
    0.34000   0.01000   0.54855         1.47990E-02         4.51146E+00        -2.36788E-02        -8.67583E+03
    0.35000   0.01000   0.54926         1.50239E-02         4.53413E+00        -2.12623E-02        -8.69008E+03
    0.36000   0.01000   0.55000         1.52242E-02         4.55031E+00        -1.87689E-02        -8.70427E+03
    0.37000   0.01000   0.55075         1.53993E-02         4.55978E+00        -1.62241E-02        -8.71836E+03
    0.38000   0.01000   0.55151         1.55487E-02         4.56239E+00        -1.36541E-02        -8.73234E+03
    0.39000   0.01000   0.55225         1.56724E-02         4.55810E+00        -1.10815E-02        -8.74617E+03
    0.40000   0.01000   0.55299         1.57704E-02         4.54693E+00        -8.51992E-03        -8.75983E+03
    0.41000   0.01000   0.55373         1.58428E-02         4.52893E+00        -5.97547E-03        -8.77331E+03
    0.42000   0.01000   0.55449         1.58899E-02         4.50422E+00        -3.45289E-03        -8.78657E+03
    0.43000   0.01000   0.55526         1.59119E-02         4.47290E+00        -9.56494E-04        -8.79959E+03
    0.44000   0.01000   0.55606         1.59090E-02         4.43514E+00         1.50754E-03        -8.81237E+03
    0.45000   0.01000   0.55689         1.58817E-02         4.39111E+00         3.92801E-03        -8.82487E+03
    0.46000   0.01000   0.55773         1.58305E-02         4.34102E+00         6.28952E-03        -8.83708E+03
    0.47000   0.01000   0.55858         1.57560E-02         4.28513E+00         8.57590E-03        -8.84898E+03
    0.48000   0.01000   0.55943         1.56590E-02         4.22373E+00         1.07736E-02        -8.86058E+03
    0.49000   0.01000   0.56029         1.55405E-02         4.15712E+00         1.28773E-02        -8.87185E+03
    0.50000   0.01000   0.56117         1.54014E-02         4.08562E+00         1.48910E-02        -8.88278E+03
    0.51000   0.01000   0.56207         1.52427E-02         4.00949E+00         1.68236E-02        -8.89338E+03
    0.52000   0.01000   0.56302         1.50650E-02         3.92898E+00         1.86860E-02        -8.90363E+03
    0.53000   0.01000   0.56403         1.48690E-02         3.84431E+00         2.04858E-02        -8.91354E+03
    0.54000   0.01000   0.56507         1.46553E-02         3.75569E+00         2.22190E-02        -8.92309E+03
    0.55000   0.01000   0.56615         1.44246E-02         3.66334E+00         2.38703E-02        -8.93229E+03
    0.56000   0.01000   0.56724         1.41779E-02         3.56751E+00         2.54214E-02        -8.94114E+03
    0.57000   0.01000   0.56831         1.39162E-02         3.46850E+00         2.68551E-02        -8.94964E+03
    0.58000   0.01000   0.56937         1.36408E-02         3.36662E+00         2.81632E-02        -8.95779E+03
    0.59000   0.01000   0.57041         1.33530E-02         3.26219E+00         2.93494E-02        -8.96560E+03
    0.60000   0.01000   0.57145         1.30538E-02         3.15549E+00         3.04231E-02        -8.97306E+03
    0.61000   0.01000   0.57249         1.27445E-02         3.04675E+00         3.13967E-02        -8.98019E+03
    0.62000   0.01000   0.57355         1.24259E-02         2.93618E+00         3.22845E-02        -8.98700E+03
    0.63000   0.01000   0.57462         1.20988E-02         2.82388E+00         3.31010E-02        -8.99349E+03
    0.64000   0.01000   0.57571         1.17639E-02         2.70993E+00         3.38587E-02        -8.99968E+03
    0.65000   0.01000   0.57681         1.14217E-02         2.59433E+00         3.45687E-02        -9.00557E+03
    0.66000   0.01000   0.57793         1.10726E-02         2.47700E+00         3.52432E-02        -9.01116E+03
    0.67000   0.01000   0.57905         1.07168E-02         2.35783E+00         3.58962E-02        -9.01647E+03
    0.68000   0.01000   0.58018         1.03546E-02         2.23660E+00         3.65426E-02        -9.02150E+03
    0.69000   0.01000   0.58130         9.98599E-03         2.11300E+00         3.71985E-02        -9.02625E+03
    0.70000   0.01000   0.58242         9.61069E-03         1.98667E+00         3.78829E-02        -9.03073E+03
    0.71000   0.01000   0.58355         9.22835E-03         1.85709E+00         3.86176E-02        -9.03492E+03
    0.72000   0.01000   0.58468         8.83835E-03         1.72367E+00         3.94255E-02        -9.03883E+03
    0.73000   0.01000   0.58583         8.43985E-03         1.58567E+00         4.03272E-02        -9.04244E+03
    0.74000   0.01000   0.58700         8.03182E-03         1.44226E+00         4.13395E-02        -9.04573E+03
    0.75000   0.01000   0.58819         7.61308E-03         1.29251E+00         4.24737E-02        -9.04867E+03
    0.76000   0.01000   0.58942         7.18236E-03         1.13538E+00         4.37322E-02        -9.05124E+03
    0.77000   0.01000   0.59068         6.73845E-03         9.69810E-01         4.51026E-02        -9.05338E+03
    0.78000   0.01000   0.59196         6.28032E-03         7.94724E-01         4.65541E-02        -9.05505E+03
    0.79000   0.01000   0.59326         5.80738E-03         6.09089E-01         4.80365E-02        -9.05617E+03
    0.80000   0.01000   0.59457         5.31961E-03         4.11974E-01         4.94800E-02        -9.05668E+03
    0.81000   0.01000   0.59587         4.81779E-03         2.02609E-01         5.07983E-02        -9.05649E+03
    0.82000   0.01000   0.59716         4.30365E-03        -1.95515E-02         5.18864E-02        -9.05550E+03
    0.83000   0.01000   0.59844         3.78008E-03        -2.54755E-01         5.26112E-02        -9.05361E+03
    0.84000   0.01000   0.59970         3.25144E-03        -5.02815E-01         5.28078E-02        -9.05068E+03
    0.85000   0.01000   0.60096         2.72394E-03        -7.62955E-01         5.22753E-02        -9.04660E+03
    0.86000   0.01000   0.60220         2.20595E-03        -1.03362E+00         5.07682E-02        -9.04122E+03
    0.87000   0.01000   0.60345         1.70859E-03        -1.31223E+00         4.79867E-02        -9.03441E+03
    0.88000   0.01000   0.60470         1.24623E-03        -1.59485E+00         4.35643E-02        -9.02603E+03
    0.89000   0.01000   0.60597         8.37316E-04        -1.87578E+00         3.70493E-02        -9.01595E+03
    0.90000   0.01000   0.60724         5.05263E-04        -2.14695E+00         2.78734E-02        -9.00409E+03
    0.91000   0.01000   0.60851         2.79863E-04        -2.39708E+00         1.52980E-02        -8.99039E+03
    0.92000   0.01000   0.60979         1.99317E-04        -2.61049E+00        -1.71036E-03        -8.97488E+03
    0.93000   0.01000   0.61108         3.14085E-04        -2.76530E+00        -2.47644E-02        -8.95772E+03
    0.94000   0.01000   0.61236         6.94619E-04        -2.83042E+00        -5.67291E-02        -8.93927E+03
    0.95000   0.01000   0.61363         1.44868E-03        -2.76051E+00        -1.03580E-01        -8.92021E+03
    0.96000   0.01000   0.61491         2.76623E-03        -2.48651E+00        -1.80104E-01        -8.90179E+03
    0.97000   0.01000   0.61618         5.05078E-03        -1.89685E+00        -3.29693E-01        -8.88613E+03
    0.98000   0.01000   0.61748         9.36011E-03        -7.96782E-01        -7.02853E-01        -8.87701E+03
    0.99000   0.01000   0.61882         1.91079E-02         1.18151E+00         4.68006E-01        -4.99830E+03
    1.00000   0.01000   0.62022         0.00000E+00         0.00000E+00         0.00000E+00        -1.12192E+03
    0.00000   0.02000   0.53502         0.00000E+00         0.00000E+00         0.00000E+00        -3.67780E+03
    0.01000   0.02000   0.53501        -2.02308E-02        -2.93236E-01        -6.87613E-01        -8.20315E+03
    0.02000   0.02000   0.53501         1.37523E-02         2.11949E+00        -2.69705E+00        -1.27354E+04
    0.03000   0.02000   0.53503         3.37103E-02         3.75450E+00        -1.60717E+00        -1.27551E+04
    0.04000   0.02000   0.53508         4.58957E-02         4.83788E+00        -9.91235E-01        -1.27843E+04
    0.05000   0.02000   0.53516         5.35350E-02         5.55281E+00        -6.25562E-01        -1.28185E+04
    0.06000   0.02000   0.53527         5.84070E-02         6.02473E+00        -4.01119E-01        -1.28551E+04
    0.07000   0.02000   0.53541         6.15574E-02         6.33721E+00        -2.61329E-01        -1.28925E+04
    0.08000   0.02000   0.53558         6.36336E-02         6.54604E+00        -1.74639E-01        -1.29298E+04
    0.09000   0.02000   0.53578         6.50503E-02         6.68888E+00        -1.22281E-01        -1.29665E+04
    0.10000   0.02000   0.53601         6.60792E-02         6.79132E+00        -9.25056E-02        -1.30023E+04
    0.11000   0.02000   0.53625         6.69004E-02         6.87079E+00        -7.76675E-02        -1.30371E+04
    0.12000   0.02000   0.53651         6.76326E-02         6.93911E+00        -7.26467E-02        -1.30710E+04
    0.13000   0.02000   0.53677         6.83534E-02         7.00418E+00        -7.39400E-02        -1.31040E+04
    0.14000   0.02000   0.53704         6.91115E-02         7.07112E+00        -7.91067E-02        -1.31361E+04
    0.15000   0.02000   0.53731         6.99355E-02         7.14306E+00        -8.64177E-02        -1.31676E+04
    0.16000   0.02000   0.53760         7.08399E-02         7.22170E+00        -9.46376E-02        -1.31984E+04
    0.17000   0.02000   0.53790         7.18283E-02         7.30771E+00        -1.02883E-01        -1.32288E+04
    0.18000   0.02000   0.53824         7.28975E-02         7.40098E+00        -1.10527E-01        -1.32589E+04
    0.19000   0.02000   0.53860         7.40389E-02         7.50091E+00        -1.17134E-01        -1.32886E+04
    0.20000   0.02000   0.53901         7.52403E-02         7.60647E+00        -1.22423E-01        -1.33181E+04
    0.21000   0.02000   0.53944         7.64874E-02         7.71645E+00        -1.26226E-01        -1.33475E+04
    0.22000   0.02000   0.53990         7.77648E-02         7.82945E+00        -1.28463E-01        -1.33768E+04
    0.23000   0.02000   0.54038         7.90567E-02         7.94403E+00        -1.29113E-01        -1.34061E+04
    0.24000   0.02000   0.54089         8.03471E-02         8.05873E+00        -1.28203E-01        -1.34354E+04
    0.25000   0.02000   0.54141         8.16208E-02         8.17209E+00        -1.25792E-01        -1.34647E+04
    0.26000   0.02000   0.54194         8.28630E-02         8.28275E+00        -1.21961E-01        -1.34941E+04
    0.27000   0.02000   0.54249         8.40600E-02         8.38937E+00        -1.16811E-01        -1.35235E+04
    0.28000   0.02000   0.54304         8.51992E-02         8.49074E+00        -1.10447E-01        -1.35529E+04
    0.29000   0.02000   0.54360         8.62690E-02         8.58572E+00        -1.02974E-01        -1.35823E+04
    0.30000   0.02000   0.54416         8.72587E-02         8.67325E+00        -9.44801E-02        -1.36117E+04
    0.31000   0.02000   0.54473         8.81586E-02         8.75235E+00        -8.50324E-02        -1.36411E+04
    0.32000   0.02000   0.54533         8.89594E-02         8.82213E+00        -7.46839E-02        -1.36704E+04
    0.33000   0.02000   0.54595         8.96524E-02         8.88172E+00        -6.34874E-02        -1.36996E+04
    0.34000   0.02000   0.54661         9.02292E-02         8.93034E+00        -5.15081E-02        -1.37287E+04
    0.35000   0.02000   0.54732         9.06826E-02         8.96729E+00        -3.88458E-02        -1.37576E+04
    0.36000   0.02000   0.54805         9.10062E-02         8.99199E+00        -2.56455E-02        -1.37863E+04
    0.37000   0.02000   0.54880         9.11955E-02         9.00397E+00        -1.20800E-02        -1.38147E+04
    0.38000   0.02000   0.54956         9.12478E-02         9.00295E+00         1.67508E-03        -1.38428E+04
    0.39000   0.02000   0.55031         9.11620E-02         8.98877E+00         1.54645E-02        -1.38706E+04
    0.40000   0.02000   0.55107         9.09385E-02         8.96140E+00         2.91710E-02        -1.38980E+04
    0.41000   0.02000   0.55182         9.05786E-02         8.92092E+00         4.27131E-02        -1.39249E+04
    0.42000   0.02000   0.55259         9.00843E-02         8.86747E+00         5.60316E-02        -1.39513E+04
    0.43000   0.02000   0.55337         8.94580E-02         8.80125E+00         6.90784E-02        -1.39772E+04
    0.44000   0.02000   0.55418         8.87028E-02         8.72253E+00         8.17994E-02        -1.40025E+04
    0.45000   0.02000   0.55501         8.78221E-02         8.63163E+00         9.41251E-02        -1.40273E+04
    0.46000   0.02000   0.55586         8.68203E-02         8.52894E+00         1.05979E-01        -1.40514E+04
    0.47000   0.02000   0.55671         8.57025E-02         8.41492E+00         1.17290E-01        -1.40748E+04
    0.48000   0.02000   0.55757         8.44745E-02         8.29007E+00         1.28006E-01        -1.40976E+04
    0.49000   0.02000   0.55843         8.31425E-02         8.15493E+00         1.38113E-01        -1.41196E+04
    0.50000   0.02000   0.55931         8.17123E-02         8.01003E+00         1.47640E-01        -1.41410E+04
    0.51000   0.02000   0.56023         8.01897E-02         7.85587E+00         1.56640E-01        -1.41616E+04
    0.52000   0.02000   0.56118         7.85796E-02         7.69295E+00         1.65176E-01        -1.41815E+04
    0.53000   0.02000   0.56219         7.68862E-02         7.52168E+00         1.73289E-01        -1.42006E+04
    0.54000   0.02000   0.56324         7.51138E-02         7.34249E+00         1.80975E-01        -1.42190E+04
    0.55000   0.02000   0.56432         7.32668E-02         7.15581E+00         1.88182E-01        -1.42366E+04
    0.56000   0.02000   0.56541         7.13502E-02         6.96213E+00         1.94841E-01        -1.42535E+04
    0.57000   0.02000   0.56649         6.93700E-02         6.76197E+00         2.00892E-01        -1.42696E+04
    0.58000   0.02000   0.56755         6.73324E-02         6.55586E+00         2.06313E-01        -1.42850E+04
    0.59000   0.02000   0.56860         6.52438E-02         6.34436E+00         2.11137E-01        -1.42996E+04
    0.60000   0.02000   0.56964         6.31097E-02         6.12794E+00         2.15437E-01        -1.43134E+04
    0.61000   0.02000   0.57069         6.09350E-02         5.90704E+00         2.19310E-01        -1.43266E+04
    0.62000   0.02000   0.57175         5.87235E-02         5.68198E+00         2.22872E-01        -1.43390E+04
    0.63000   0.02000   0.57283         5.64776E-02         5.45297E+00         2.26247E-01        -1.43507E+04
    0.64000   0.02000   0.57392         5.41986E-02         5.22013E+00         2.29558E-01        -1.43617E+04