VARIABLES="X","Y","T","STRL","U","V","P"
 ZONE T="FLOW",I=  81 , J=  81 , F=POINT
    0.00000   0.00000   0.53905         0.00000E+00         0.00000E+00         0.00000E+00         1.84054E+03
    0.01250   0.00000   0.53903         0.00000E+00         0.00000E+00         0.00000E+00         1.87458E+03
    0.02500   0.00000   0.53904         0.00000E+00         0.00000E+00         0.00000E+00         1.89756E+03
    0.03750   0.00000   0.53909         0.00000E+00         0.00000E+00         0.00000E+00         1.95651E+03
    0.05000   0.00000   0.53919         0.00000E+00         0.00000E+00         0.00000E+00         1.90484E+03
    0.06250   0.00000   0.53933         0.00000E+00         0.00000E+00         0.00000E+00         1.93016E+03
    0.07500   0.00000   0.53951         0.00000E+00         0.00000E+00         0.00000E+00         1.93224E+03
    0.08750   0.00000   0.53974         0.00000E+00         0.00000E+00         0.00000E+00         1.92093E+03
    0.10000   0.00000   0.54001         0.00000E+00         0.00000E+00         0.00000E+00         1.94966E+03
    0.11250   0.00000   0.54030         0.00000E+00         0.00000E+00         0.00000E+00         1.92951E+03
    0.12500   0.00000   0.54061         0.00000E+00         0.00000E+00         0.00000E+00         1.95696E+03
    0.13750   0.00000   0.54094         0.00000E+00         0.00000E+00         0.00000E+00         1.94389E+03
    0.15000   0.00000   0.54129         0.00000E+00         0.00000E+00         0.00000E+00         1.96217E+03
    0.16250   0.00000   0.54166         0.00000E+00         0.00000E+00         0.00000E+00         1.95713E+03
    0.17500   0.00000   0.54205         0.00000E+00         0.00000E+00         0.00000E+00         1.96863E+03
    0.18750   0.00000   0.54249         0.00000E+00         0.00000E+00         0.00000E+00         1.96871E+03
    0.20000   0.00000   0.54296         0.00000E+00         0.00000E+00         0.00000E+00         1.97637E+03
    0.21250   0.00000   0.54347         0.00000E+00         0.00000E+00         0.00000E+00         1.97919E+03
    0.22500   0.00000   0.54403         0.00000E+00         0.00000E+00         0.00000E+00         1.98493E+03
    0.23750   0.00000   0.54463         0.00000E+00         0.00000E+00         0.00000E+00         1.98896E+03
    0.25000   0.00000   0.54528         0.00000E+00         0.00000E+00         0.00000E+00         1.99391E+03
    0.26250   0.00000   0.54595         0.00000E+00         0.00000E+00         0.00000E+00         1.99838E+03
    0.27500   0.00000   0.54664         0.00000E+00         0.00000E+00         0.00000E+00         2.00308E+03
    0.28750   0.00000   0.54734         0.00000E+00         0.00000E+00         0.00000E+00         2.00768E+03
    0.30000   0.00000   0.54803         0.00000E+00         0.00000E+00         0.00000E+00         2.01233E+03
    0.31250   0.00000   0.54873         0.00000E+00         0.00000E+00         0.00000E+00         2.01698E+03
    0.32500   0.00000   0.54947         0.00000E+00         0.00000E+00         0.00000E+00         2.02166E+03
    0.33750   0.00000   0.55027         0.00000E+00         0.00000E+00         0.00000E+00         2.02637E+03
    0.35000   0.00000   0.55114         0.00000E+00         0.00000E+00         0.00000E+00         2.03110E+03
    0.36250   0.00000   0.55207         0.00000E+00         0.00000E+00         0.00000E+00         2.03586E+03
    0.37500   0.00000   0.55302         0.00000E+00         0.00000E+00         0.00000E+00         2.04066E+03
    0.38750   0.00000   0.55396         0.00000E+00         0.00000E+00         0.00000E+00         2.04550E+03
    0.40000   0.00000   0.55487         0.00000E+00         0.00000E+00         0.00000E+00         2.05037E+03
    0.41250   0.00000   0.55578         0.00000E+00         0.00000E+00         0.00000E+00         2.05529E+03
    0.42500   0.00000   0.55671         0.00000E+00         0.00000E+00         0.00000E+00         2.06023E+03
    0.43750   0.00000   0.55769         0.00000E+00         0.00000E+00         0.00000E+00         2.06522E+03
    0.45000   0.00000   0.55871         0.00000E+00         0.00000E+00         0.00000E+00         2.07024E+03
    0.46250   0.00000   0.55975         0.00000E+00         0.00000E+00         0.00000E+00         2.07529E+03
    0.47500   0.00000   0.56082         0.00000E+00         0.00000E+00         0.00000E+00         2.08037E+03
    0.48750   0.00000   0.56188         0.00000E+00         0.00000E+00         0.00000E+00         2.08548E+03
    0.50000   0.00000   0.56297         0.00000E+00         0.00000E+00         0.00000E+00         2.09062E+03
    0.51250   0.00000   0.56410         0.00000E+00         0.00000E+00         0.00000E+00         2.09578E+03
    0.52500   0.00000   0.56531         0.00000E+00         0.00000E+00         0.00000E+00         2.10096E+03
    0.53750   0.00000   0.56659         0.00000E+00         0.00000E+00         0.00000E+00         2.10615E+03
    0.55000   0.00000   0.56793         0.00000E+00         0.00000E+00         0.00000E+00         2.11135E+03
    0.56250   0.00000   0.56928         0.00000E+00         0.00000E+00         0.00000E+00         2.11656E+03
    0.57500   0.00000   0.57061         0.00000E+00         0.00000E+00         0.00000E+00         2.12177E+03
    0.58750   0.00000   0.57192         0.00000E+00         0.00000E+00         0.00000E+00         2.12697E+03
    0.60000   0.00000   0.57321         0.00000E+00         0.00000E+00         0.00000E+00         2.13216E+03
    0.61250   0.00000   0.57451         0.00000E+00         0.00000E+00         0.00000E+00         2.13733E+03
    0.62500   0.00000   0.57583         0.00000E+00         0.00000E+00         0.00000E+00         2.14248E+03
    0.63750   0.00000   0.57718         0.00000E+00         0.00000E+00         0.00000E+00         2.14759E+03
    0.65000   0.00000   0.57855         0.00000E+00         0.00000E+00         0.00000E+00         2.15267E+03
    0.66250   0.00000   0.57993         0.00000E+00         0.00000E+00         0.00000E+00         2.15770E+03
    0.67500   0.00000   0.58133         0.00000E+00         0.00000E+00         0.00000E+00         2.16268E+03
    0.68750   0.00000   0.58272         0.00000E+00         0.00000E+00         0.00000E+00         2.16759E+03
    0.70000   0.00000   0.58411         0.00000E+00         0.00000E+00         0.00000E+00         2.17246E+03
    0.71250   0.00000   0.58551         0.00000E+00         0.00000E+00         0.00000E+00         2.17717E+03
    0.72500   0.00000   0.58692         0.00000E+00         0.00000E+00         0.00000E+00         2.18197E+03
    0.73750   0.00000   0.58837         0.00000E+00         0.00000E+00         0.00000E+00         2.18630E+03
    0.75000   0.00000   0.58985         0.00000E+00         0.00000E+00         0.00000E+00         2.19128E+03
    0.76250   0.00000   0.59138         0.00000E+00         0.00000E+00         0.00000E+00         2.19476E+03
    0.77500   0.00000   0.59297         0.00000E+00         0.00000E+00         0.00000E+00         2.20046E+03
    0.78750   0.00000   0.59458         0.00000E+00         0.00000E+00         0.00000E+00         2.20244E+03
    0.80000   0.00000   0.59621         0.00000E+00         0.00000E+00         0.00000E+00         2.20920E+03
    0.81250   0.00000   0.59783         0.00000E+00         0.00000E+00         0.00000E+00         2.21003E+03
    0.82500   0.00000   0.59943         0.00000E+00         0.00000E+00         0.00000E+00         2.21599E+03
    0.83750   0.00000   0.60101         0.00000E+00         0.00000E+00         0.00000E+00         2.21978E+03
    0.85000   0.00000   0.60257         0.00000E+00         0.00000E+00         0.00000E+00         2.21818E+03
    0.86250   0.00000   0.60412         0.00000E+00         0.00000E+00         0.00000E+00         2.23455E+03
    0.87500   0.00000   0.60567         0.00000E+00         0.00000E+00         0.00000E+00         2.21431E+03
    0.88750   0.00000   0.60723         0.00000E+00         0.00000E+00         0.00000E+00         2.25279E+03
    0.90000   0.00000   0.60881         0.00000E+00         0.00000E+00         0.00000E+00         2.20874E+03
    0.91250   0.00000   0.61040         0.00000E+00         0.00000E+00         0.00000E+00         2.26407E+03
    0.92500   0.00000   0.61200         0.00000E+00         0.00000E+00         0.00000E+00         2.21303E+03
    0.93750   0.00000   0.61360         0.00000E+00         0.00000E+00         0.00000E+00         2.25932E+03
    0.95000   0.00000   0.61520         0.00000E+00         0.00000E+00         0.00000E+00         2.23757E+03
    0.96250   0.00000   0.61678         0.00000E+00         0.00000E+00         0.00000E+00         2.24748E+03
    0.97500   0.00000   0.61838         0.00000E+00         0.00000E+00         0.00000E+00         2.26978E+03
    0.98750   0.00000   0.62003         0.00000E+00         0.00000E+00         0.00000E+00         2.12388E+03
    1.00000   0.00000   0.62176         0.00000E+00         0.00000E+00         0.00000E+00         2.24923E+03
    0.00000   0.01250   0.53656         0.00000E+00         0.00000E+00         0.00000E+00         1.87696E+03
    0.01250   0.01250   0.53655        -7.40939E-05        -1.40562E+00         8.00366E-01         1.96709E+03
    0.02500   0.01250   0.53656        -2.00515E-04         1.72266E+00        -1.60488E+00         2.06101E+03
    0.03750   0.01250   0.53660         1.23277E-03        -2.34775E+00         1.63541E+00         2.11587E+03
    0.05000   0.01250   0.53670        -2.55964E-03         2.87834E+00        -1.04348E+00         2.07318E+03
    0.06250   0.01250   0.53684         3.79384E-03        -3.06339E+00         3.42168E-01         2.09486E+03
    0.07500   0.01250   0.53703        -4.57411E-03         2.92491E+00         2.88109E-01         2.09444E+03
    0.08750   0.01250   0.53726         4.74469E-03        -2.56630E+00        -6.53740E-01         2.08408E+03
    0.10000   0.01250   0.53754        -4.48849E-03         2.04398E+00         8.19058E-01         2.10600E+03
    0.11250   0.01250   0.53784         3.81014E-03        -1.58110E+00        -7.84280E-01         2.08884E+03
    0.12500   0.01250   0.53816        -3.14402E-03         1.11773E+00         6.66060E-01         2.10962E+03
    0.13750   0.01250   0.53850         2.36160E-03        -7.97463E-01        -5.20198E-01         2.09821E+03
    0.15000   0.01250   0.53884        -1.80241E-03         5.26863E-01         3.83461E-01         2.11142E+03
    0.16250   0.01250   0.53920         1.22785E-03        -3.48918E-01        -2.74428E-01         2.10615E+03
    0.17500   0.01250   0.53960        -8.88555E-04         2.21024E-01         1.88638E-01         2.11384E+03
    0.18750   0.01250   0.54003         5.30604E-04        -1.30381E-01        -1.25685E-01         2.11248E+03
    0.20000   0.01250   0.54052        -3.78231E-04         8.25560E-02         8.02782E-02         2.11706E+03
    0.21250   0.01250   0.54105         1.75517E-04        -3.74005E-02        -4.88109E-02         2.11783E+03
    0.22500   0.01250   0.54163        -1.45101E-04         2.98891E-02         2.82998E-02         2.12087E+03
    0.23750   0.01250   0.54224         3.02412E-05        -3.38368E-03        -1.54976E-02         2.12258E+03
    0.25000   0.01250   0.54289        -6.02620E-05         1.45740E-02         7.93485E-03         2.12498E+03
    0.26250   0.01250   0.54356        -1.60043E-05         7.78914E-03        -3.97126E-03         2.12702E+03
    0.27500   0.01250   0.54425        -3.58246E-05         1.22647E-02         1.66870E-03         2.12922E+03
    0.28750   0.01250   0.54494        -2.68862E-05         1.18712E-02        -8.67886E-04         2.13133E+03
    0.30000   0.01250   0.54564        -2.99248E-05         1.33930E-02         1.92926E-04         2.13348E+03
    0.31250   0.01250   0.54635        -2.83076E-05         1.41461E-02        -2.19979E-04         2.13561E+03
    0.32500   0.01250   0.54710        -2.83120E-05         1.51031E-02        -5.73938E-05         2.13776E+03
    0.33750   0.01250   0.54791        -2.79057E-05         1.59480E-02        -1.01138E-04         2.13990E+03
    0.35000   0.01250   0.54878        -2.75316E-05         1.67479E-02        -7.00551E-05         2.14206E+03
    0.36250   0.01250   0.54970        -2.73687E-05         1.75166E-02        -6.15011E-05         2.14422E+03
    0.37500   0.01250   0.55065        -2.70436E-05         1.82107E-02        -4.74306E-05         2.14640E+03
    0.38750   0.01250   0.55159        -2.70008E-05         1.88818E-02        -3.26777E-05         2.14859E+03
    0.40000   0.01250   0.55252        -2.67966E-05         1.94842E-02        -2.50838E-05         2.15080E+03
    0.41250   0.01250   0.55345        -2.68259E-05         2.00630E-02        -1.16090E-05         2.15301E+03
    0.42500   0.01250   0.55440        -2.67477E-05         2.05849E-02        -6.70726E-06         2.15525E+03
    0.43750   0.01250   0.55540        -2.68297E-05         2.10778E-02         4.37126E-06         2.15749E+03
    0.45000   0.01250   0.55642        -2.68678E-05         2.15221E-02         9.69485E-06         2.15975E+03
    0.46250   0.01250   0.55748        -2.70133E-05         2.19323E-02         1.77948E-05         2.16202E+03
    0.47500   0.01250   0.55854        -2.71467E-05         2.22984E-02         2.29300E-05         2.16431E+03
    0.48750   0.01250   0.55962        -2.73603E-05         2.26292E-02         2.85185E-05         2.16661E+03
    0.50000   0.01250   0.56071        -2.75681E-05         2.29171E-02         3.25272E-05         2.16891E+03
    0.51250   0.01250   0.56185        -2.78419E-05         2.31666E-02         3.90006E-05         2.17123E+03
    0.52500   0.01250   0.56306        -2.81425E-05         2.33705E-02         4.38060E-05         2.17355E+03
    0.53750   0.01250   0.56436        -2.84921E-05         2.35258E-02         5.38020E-05         2.17587E+03
    0.55000   0.01250   0.56570        -2.89415E-05         2.36321E-02         6.01716E-05         2.17820E+03
    0.56250   0.01250   0.56706        -2.93946E-05         2.36805E-02         7.01082E-05         2.18053E+03
    0.57500   0.01250   0.56839        -3.00044E-05         2.36831E-02         7.53220E-05         2.18286E+03
    0.58750   0.01250   0.56970        -3.05521E-05         2.36265E-02         8.05013E-05         2.18519E+03
    0.60000   0.01250   0.57101        -3.12641E-05         2.35297E-02         8.37729E-05         2.18751E+03
    0.61250   0.01250   0.57231        -3.18834E-05         2.33766E-02         8.42769E-05         2.18983E+03
    0.62500   0.01250   0.57364        -3.26318E-05         2.31833E-02         8.79619E-05         2.19213E+03
    0.63750   0.01250   0.57499        -3.33333E-05         2.29387E-02         8.02650E-05         2.19442E+03
    0.65000   0.01250   0.57638        -3.39865E-05         2.26405E-02         1.05869E-04         2.19670E+03
    0.66250   0.01250   0.57777        -3.51342E-05         2.23295E-02         2.26485E-05         2.19896E+03
    0.67500   0.01250   0.57918        -3.44200E-05         2.18356E-02         2.72310E-04         2.20119E+03
    0.68750   0.01250   0.58059        -3.98618E-05         2.17119E-02        -4.24247E-04         2.20339E+03
    0.70000   0.01250   0.58199        -2.70390E-05         2.03062E-02         1.37528E-03         2.20559E+03
    0.71250   0.01250   0.58340        -6.44503E-05         2.21114E-02        -2.89181E-03         2.20769E+03
    0.72500   0.01250   0.58483         2.55071E-05         1.57134E-02         6.53315E-03         2.20989E+03
    0.73750   0.01250   0.58628        -1.85519E-04         2.79538E-02        -1.25887E-02         2.21176E+03
    0.75000   0.01250   0.58777         2.63101E-04        -1.30122E-04         2.34156E-02         2.21417E+03
    0.76250   0.01250   0.58931        -6.35817E-04         5.20206E-02        -3.86838E-02         2.21547E+03
    0.77500   0.01250   0.59090         1.02131E-03        -4.55376E-02         5.94565E-02         2.21855E+03
    0.78750   0.01250   0.59252        -1.82406E-03         1.15190E-01        -7.98709E-02         2.21874E+03
    0.80000   0.01250   0.59415         2.65165E-03        -1.37748E-01         9.39204E-02         2.22282E+03
    0.81250   0.01250   0.59578        -3.78763E-03         2.15967E-01        -8.24709E-02         2.22219E+03
    0.82500   0.01250   0.59739         4.43944E-03        -2.37612E-01         3.04268E-02         2.22588E+03
    0.83750   0.01250   0.59898        -4.54561E-03         2.49721E-01         9.34212E-02         2.22769E+03
    0.85000   0.01250   0.60055         2.60396E-03        -1.57593E-01        -2.97735E-01         2.22569E+03
    0.86250   0.01250   0.60211         1.72159E-03        -6.24222E-02         5.96927E-01         2.23761E+03
    0.87500   0.01250   0.60368        -1.03473E-02         4.52478E-01        -9.60997E-01         2.22101E+03
    0.88750   0.01250   0.60525         2.30665E-02        -1.06384E+00         1.32978E+00         2.25064E+03
    0.90000   0.01250   0.60684        -4.05328E-02         1.83915E+00        -1.62591E+00         2.21493E+03
    0.91250   0.01250   0.60844         6.07920E-02        -2.74843E+00         1.72872E+00         2.25882E+03
    0.92500   0.01250   0.61004        -8.16361E-02         3.64416E+00        -1.57846E+00         2.21691E+03
    0.93750   0.01250   0.61164         9.94774E-02        -4.39520E+00         1.15765E+00         2.25520E+03
    0.95000   0.01250   0.61324        -1.11380E-01         4.84600E+00        -4.73130E-01         2.23684E+03
    0.96250   0.01250   0.61483         1.13581E-01        -4.96101E+00        -3.82139E-01         2.24972E+03
    0.97500   0.01250   0.61643        -1.05066E-01         4.46140E+00         1.09187E+00         2.30230E+03
    0.98750   0.01250   0.61809         8.96181E-02        -4.25929E+00        -4.32901E+00         2.23668E+03
    1.00000   0.01250   0.61983         0.00000E+00         0.00000E+00         0.00000E+00         2.35976E+03
    0.00000   0.02500   0.53396         0.00000E+00         0.00000E+00         0.00000E+00         1.84014E+03
    0.01250   0.02500   0.53395        -3.94766E-04         5.16211E+00        -4.22741E-01         2.04517E+03
    0.02500   0.02500   0.53395         1.04163E-03        -3.92704E+00         9.61449E-01         2.24462E+03
    0.03750   0.02500   0.53400        -2.17409E-03         2.92927E+00        -1.10648E+00         2.26523E+03
    0.05000   0.02500   0.53410         3.56987E-03        -2.35138E+00         6.60378E-01         2.24928E+03
    0.06250   0.02500   0.53425        -4.76612E-03         1.81415E+00        -1.34459E-02         2.25905E+03
    0.07500   0.02500   0.53444         5.46446E-03        -1.42960E+00        -5.12102E-01         2.25832E+03
    0.08750   0.02500   0.53468        -5.60243E-03         1.05970E+00         8.88153E-01         2.25287E+03
    0.10000   0.02500   0.53496         5.09830E-03        -7.80581E-01        -9.77622E-01         2.26254E+03
    0.11250   0.02500   0.53527        -4.44264E-03         5.42681E-01         9.23389E-01         2.25426E+03
    0.12500   0.02500   0.53559         3.48630E-03        -3.61257E-01        -7.74522E-01         2.26323E+03
    0.13750   0.02500   0.53592        -2.74106E-03         2.57479E-01         5.87361E-01         2.25754E+03
    0.15000   0.02500   0.53626         1.97149E-03        -1.33533E-01        -4.43917E-01         2.26260E+03
    0.16250   0.02500   0.53662        -1.41910E-03         1.25249E-01         3.03439E-01         2.25936E+03
    0.17500   0.02500   0.53702         9.63688E-04        -2.68779E-02        -2.16944E-01         2.26166E+03
    0.18750   0.02500   0.53746        -6.13563E-04         7.03663E-02         1.36866E-01         2.25996E+03
    0.20000   0.02500   0.53797         4.09810E-04         1.82854E-02        -9.28254E-02         2.26077E+03
    0.21250   0.02500   0.53852        -2.01408E-04         5.10361E-02         5.14943E-02         2.25992E+03
    0.22500   0.02500   0.53911         1.65228E-04         3.66598E-02        -3.45375E-02         2.26001E+03
    0.23750   0.02500   0.53974        -2.29437E-05         4.70820E-02         1.42930E-02         2.25954E+03
    0.25000   0.02500   0.54039         8.81741E-05         4.49908E-02        -1.20240E-02         2.25934E+03
    0.26250   0.02500   0.54106         4.81960E-05         4.89246E-02         1.27867E-03         2.25898E+03
    0.27500   0.02500   0.54174         8.13736E-05         5.01218E-02        -5.10355E-03         2.25867E+03
    0.28750   0.02500   0.54244         8.23637E-05         5.24770E-02        -2.22088E-03         2.25831E+03
    0.30000   0.02500   0.54314         9.74718E-05         5.43214E-02        -3.39317E-03         2.25796E+03
    0.31250   0.02500   0.54386         1.07530E-04         5.63001E-02        -2.86432E-03         2.25758E+03
    0.32500   0.02500   0.54462         1.19717E-04         5.81593E-02        -2.97998E-03         2.25719E+03
    0.33750   0.02500   0.54544         1.31560E-04         5.99729E-02        -2.84386E-03         2.25679E+03
    0.35000   0.02500   0.54631         1.43540E-04         6.17098E-02        -2.78284E-03         2.25637E+03
    0.36250   0.02500   0.54723         1.55739E-04         6.33664E-02        -2.68810E-03         2.25595E+03
    0.37500   0.02500   0.54818         1.67722E-04         6.49428E-02        -2.59748E-03         2.25551E+03
    0.38750   0.02500   0.54913         1.79918E-04         6.64317E-02        -2.50921E-03         2.25506E+03
    0.40000   0.02500   0.55007         1.91849E-04         6.78388E-02        -2.41716E-03         2.25460E+03
    0.41250   0.02500   0.55103         2.03915E-04         6.91598E-02        -2.33440E-03         2.25414E+03
    0.42500   0.02500   0.55200         2.15741E-04         7.03979E-02        -2.24387E-03         2.25366E+03
    0.43750   0.02500   0.55301         2.27577E-04         7.15496E-02        -2.15952E-03         2.25318E+03
    0.45000   0.02500   0.55404         2.39178E-04         7.26143E-02        -2.06837E-03         2.25269E+03
    0.46250   0.02500   0.55510         2.50664E-04         7.35893E-02        -1.97985E-03         2.25219E+03
    0.47500   0.02500   0.55617         2.61885E-04         7.44728E-02        -1.88856E-03         2.25169E+03
    0.48750   0.02500   0.55725         2.72906E-04         7.52621E-02        -1.79726E-03         2.25118E+03
    0.50000   0.02500   0.55836         2.83601E-04         7.59541E-02        -1.70141E-03         2.25066E+03
    0.51250   0.02500   0.55951         2.93984E-04         7.65428E-02        -1.60145E-03         2.25014E+03
    0.52500   0.02500   0.56072         3.03928E-04         7.70214E-02        -1.49003E-03         2.24961E+03
    0.53750   0.02500   0.56202         3.13348E-04         7.73816E-02        -1.37385E-03         2.24908E+03
    0.55000   0.02500   0.56337         3.22195E-04         7.76158E-02        -1.24680E-03         2.24855E+03
    0.56250   0.02500   0.56473         3.30294E-04         7.77200E-02        -1.12148E-03         2.24801E+03
    0.57500   0.02500   0.56608         3.37769E-04         7.76906E-02        -9.93651E-04         2.24748E+03
    0.58750   0.02500   0.56740         3.44378E-04         7.75292E-02        -8.70112E-04         2.24694E+03
    0.60000   0.02500   0.56871         3.50350E-04         7.72341E-02        -7.48401E-04         2.24641E+03
    0.61250   0.02500   0.57002         3.55402E-04         7.68072E-02        -6.25841E-04         2.24588E+03
    0.62500   0.02500   0.57136         3.59733E-04         7.62460E-02        -5.07428E-04         2.24536E+03
    0.63750   0.02500   0.57273         3.63127E-04         7.55491E-02        -3.74766E-04         2.24484E+03
    0.65000   0.02500   0.57412         3.65501E-04         7.47170E-02        -2.79967E-04         2.24432E+03
    0.66250   0.02500   0.57553         3.67477E-04         7.37336E-02        -5.45019E-05         2.24381E+03
    0.67500   0.02500   0.57694         3.66177E-04         7.26399E-02        -2.13047E-04         2.24331E+03
    0.68750   0.02500   0.57836         3.70932E-04         7.12874E-02         7.33067E-04         2.24282E+03
    0.70000   0.02500   0.57978         3.53178E-04         7.00797E-02        -1.17166E-03         2.24235E+03
    0.71250   0.02500   0.58121         3.91740E-04         6.78831E-02         3.87018E-03         2.24187E+03
    0.72500   0.02500   0.58265         2.82757E-04         6.74834E-02        -6.56285E-03         2.24145E+03
    0.73750   0.02500   0.58411         5.13409E-04         6.22597E-02         1.52183E-02         2.24094E+03
    0.75000   0.02500   0.58562        -4.33950E-06         6.66243E-02        -2.47477E-02         2.24069E+03
    0.76250   0.02500   0.58717         9.89782E-04         5.08780E-02         4.49077E-02         2.24001E+03
    0.77500   0.02500   0.58876        -8.84013E-04         7.20361E-02        -6.37975E-02         2.24014E+03
    0.78750   0.02500   0.59039         2.26606E-03         2.71314E-02         9.18127E-02         2.23909E+03
    0.80000   0.02500   0.59203        -2.75647E-03         9.00386E-02        -1.01224E-01         2.23981E+03
    0.81250   0.02500   0.59366         4.38520E-03        -1.46539E-02         9.94044E-02         2.23850E+03
    0.82500   0.02500   0.59528        -4.90203E-03         1.19334E-01        -3.36982E-02         2.23931E+03
    0.83750   0.02500   0.59688         5.22708E-03        -6.54715E-02        -8.08104E-02         2.23919E+03
    0.85000   0.02500   0.59846        -3.35001E-03         1.33923E-01         3.13048E-01         2.23786E+03
    0.86250   0.02500   0.60003        -1.34705E-03        -8.36866E-02        -6.11290E-01         2.24230E+03
    0.87500   0.02500   0.60160         9.89667E-03         7.99154E-02         1.00293E+00         2.23465E+03
    0.88750   0.02500   0.60319        -2.36043E-02        -1.21244E-03        -1.38778E+00         2.24710E+03
    0.90000   0.02500   0.60478         4.13791E-02        -8.42225E-02         1.68542E+00         2.23042E+03
    0.91250   0.02500   0.60639        -6.26979E-02         2.06118E-01        -1.80485E+00         2.24981E+03
    0.92500   0.02500   0.60800         8.42687E-02        -3.23293E-01         1.64570E+00         2.23015E+03
    0.93750   0.02500   0.60961        -1.03011E-01         4.52800E-01        -1.19980E+00         2.24715E+03
    0.95000   0.02500   0.61121         1.15090E-01        -5.23972E-01         5.63553E-01         2.23709E+03
    0.96250   0.02500   0.61281        -1.19372E-01         6.29992E-01         3.88553E-01         2.23604E+03
    0.97500   0.02500   0.61442         1.08744E-01        -5.84506E-01        -6.99804E-01         2.23288E+03
    0.98750   0.02500   0.61609        -1.05149E-01         9.98741E-01         4.48689E+00         2.16304E+03
    1.00000   0.02500   0.61784         0.00000E+00         0.00000E+00         0.00000E+00         2.19910E+03
    0.00000   0.03750   0.53118         0.00000E+00         0.00000E+00         0.00000E+00         1.99969E+03
    0.01250   0.03750   0.53117         1.36318E-03        -8.86086E+00        -8.46408E-01         2.09926E+03
    0.02500   0.03750   0.53118        -2.58684E-03         5.91028E+00         4.15795E-01         2.22719E+03
    0.03750   0.03750   0.53123         3.94208E-03        -4.57238E+00         1.76717E-01         2.25884E+03
    0.05000   0.03750   0.53134        -5.48075E-03         3.18934E+00         4.87527E-02         2.25736E+03
    0.06250   0.03750   0.53150         6.61513E-03        -2.52286E+00        -5.54902E-01         2.26146E+03
    0.07500   0.03750   0.53170        -7.24941E-03         1.76195E+00         1.03603E+00         2.26265E+03
    0.08750   0.03750   0.53194         7.05646E-03        -1.30053E+00        -1.29293E+00         2.26279E+03
    0.10000   0.03750   0.53221        -6.43945E-03         8.86327E-01         1.33144E+00         2.26518E+03
    0.11250   0.03750   0.53251         5.33258E-03        -5.74087E-01        -1.19918E+00         2.26479E+03
    0.12500   0.03750   0.53282        -4.27439E-03         4.10570E-01         9.46633E-01         2.26688E+03
    0.13750   0.03750   0.53315         3.24366E-03        -2.01060E-01        -7.48391E-01         2.26646E+03
    0.15000   0.03750   0.53349        -2.30542E-03         1.95548E-01         5.10612E-01         2.26751E+03
    0.16250   0.03750   0.53386         1.73386E-03        -3.38525E-02        -3.84417E-01         2.26708E+03
    0.17500   0.03750   0.53426        -1.00874E-03         1.10600E-01         2.38356E-01         2.26743E+03
    0.18750   0.03750   0.53472         8.57656E-04         3.45753E-02        -1.75229E-01         2.26704E+03
    0.20000   0.03750   0.53524        -2.89553E-04         8.19553E-02         9.46265E-02         2.26702E+03
    0.21250   0.03750   0.53581         4.43821E-04         6.14975E-02        -7.18131E-02         2.26670E+03
    0.22500   0.03750   0.53641         5.82749E-05         7.62070E-02         2.74634E-02         2.26650E+03
    0.23750   0.03750   0.53705         3.06916E-04         7.33539E-02        -2.84742E-02         2.26620E+03
    0.25000   0.03750   0.53770         2.18035E-04         7.88570E-02         1.41933E-03         2.26593E+03
    0.26250   0.03750   0.53837         3.02143E-04         8.06597E-02        -1.37177E-02         2.26561E+03
    0.27500   0.03750   0.53906         3.05824E-04         8.40410E-02        -6.48847E-03         2.26530E+03
    0.28750   0.03750   0.53975         3.47336E-04         8.67789E-02        -9.64115E-03         2.26496E+03