VARIABLES="X","Y","T","STRL","U","V","P"
 ZONE T="FLOW",I=  81 , J=  81 , F=POINT
    0.00000   0.00000   0.53905         0.00000E+00         0.00000E+00         0.00000E+00         5.46657E+01
    0.01250   0.00000   0.53903         0.00000E+00         0.00000E+00         0.00000E+00         6.85890E+00
    0.02500   0.00000   0.53904         0.00000E+00         0.00000E+00         0.00000E+00        -4.08026E+01
    0.03750   0.00000   0.53909         0.00000E+00         0.00000E+00         0.00000E+00        -4.05495E+01
    0.05000   0.00000   0.53919         0.00000E+00         0.00000E+00         0.00000E+00        -4.03492E+01
    0.06250   0.00000   0.53933         0.00000E+00         0.00000E+00         0.00000E+00        -4.01719E+01
    0.07500   0.00000   0.53951         0.00000E+00         0.00000E+00         0.00000E+00        -4.00077E+01
    0.08750   0.00000   0.53974         0.00000E+00         0.00000E+00         0.00000E+00        -3.98530E+01
    0.10000   0.00000   0.54001         0.00000E+00         0.00000E+00         0.00000E+00        -3.97067E+01
    0.11250   0.00000   0.54030         0.00000E+00         0.00000E+00         0.00000E+00        -3.95683E+01
    0.12500   0.00000   0.54061         0.00000E+00         0.00000E+00         0.00000E+00        -3.94375E+01
    0.13750   0.00000   0.54094         0.00000E+00         0.00000E+00         0.00000E+00        -3.93143E+01
    0.15000   0.00000   0.54129         0.00000E+00         0.00000E+00         0.00000E+00        -3.91986E+01
    0.16250   0.00000   0.54166         0.00000E+00         0.00000E+00         0.00000E+00        -3.90901E+01
    0.17500   0.00000   0.54205         0.00000E+00         0.00000E+00         0.00000E+00        -3.89887E+01
    0.18750   0.00000   0.54249         0.00000E+00         0.00000E+00         0.00000E+00        -3.88942E+01
    0.20000   0.00000   0.54296         0.00000E+00         0.00000E+00         0.00000E+00        -3.88063E+01
    0.21250   0.00000   0.54347         0.00000E+00         0.00000E+00         0.00000E+00        -3.87248E+01
    0.22500   0.00000   0.54403         0.00000E+00         0.00000E+00         0.00000E+00        -3.86494E+01
    0.23750   0.00000   0.54463         0.00000E+00         0.00000E+00         0.00000E+00        -3.85799E+01
    0.25000   0.00000   0.54528         0.00000E+00         0.00000E+00         0.00000E+00        -3.85159E+01
    0.26250   0.00000   0.54595         0.00000E+00         0.00000E+00         0.00000E+00        -3.84572E+01
    0.27500   0.00000   0.54664         0.00000E+00         0.00000E+00         0.00000E+00        -3.84036E+01
    0.28750   0.00000   0.54734         0.00000E+00         0.00000E+00         0.00000E+00        -3.83549E+01
    0.30000   0.00000   0.54803         0.00000E+00         0.00000E+00         0.00000E+00        -3.83108E+01
    0.31250   0.00000   0.54873         0.00000E+00         0.00000E+00         0.00000E+00        -3.82712E+01
    0.32500   0.00000   0.54947         0.00000E+00         0.00000E+00         0.00000E+00        -3.82359E+01
    0.33750   0.00000   0.55027         0.00000E+00         0.00000E+00         0.00000E+00        -3.82048E+01
    0.35000   0.00000   0.55114         0.00000E+00         0.00000E+00         0.00000E+00        -3.81776E+01
    0.36250   0.00000   0.55207         0.00000E+00         0.00000E+00         0.00000E+00        -3.81544E+01
    0.37500   0.00000   0.55302         0.00000E+00         0.00000E+00         0.00000E+00        -3.81348E+01
    0.38750   0.00000   0.55396         0.00000E+00         0.00000E+00         0.00000E+00        -3.81188E+01
    0.40000   0.00000   0.55487         0.00000E+00         0.00000E+00         0.00000E+00        -3.81063E+01
    0.41250   0.00000   0.55578         0.00000E+00         0.00000E+00         0.00000E+00        -3.80971E+01
    0.42500   0.00000   0.55671         0.00000E+00         0.00000E+00         0.00000E+00        -3.80913E+01
    0.43750   0.00000   0.55769         0.00000E+00         0.00000E+00         0.00000E+00        -3.80886E+01
    0.45000   0.00000   0.55871         0.00000E+00         0.00000E+00         0.00000E+00        -3.80891E+01
    0.46250   0.00000   0.55975         0.00000E+00         0.00000E+00         0.00000E+00        -3.80928E+01
    0.47500   0.00000   0.56082         0.00000E+00         0.00000E+00         0.00000E+00        -3.80996E+01
    0.48750   0.00000   0.56188         0.00000E+00         0.00000E+00         0.00000E+00        -3.81094E+01
    0.50000   0.00000   0.56297         0.00000E+00         0.00000E+00         0.00000E+00        -3.81222E+01
    0.51250   0.00000   0.56410         0.00000E+00         0.00000E+00         0.00000E+00        -3.81381E+01
    0.52500   0.00000   0.56531         0.00000E+00         0.00000E+00         0.00000E+00        -3.81571E+01
    0.53750   0.00000   0.56659         0.00000E+00         0.00000E+00         0.00000E+00        -3.81790E+01
    0.55000   0.00000   0.56793         0.00000E+00         0.00000E+00         0.00000E+00        -3.82040E+01
    0.56250   0.00000   0.56928         0.00000E+00         0.00000E+00         0.00000E+00        -3.82320E+01
    0.57500   0.00000   0.57061         0.00000E+00         0.00000E+00         0.00000E+00        -3.82630E+01
    0.58750   0.00000   0.57192         0.00000E+00         0.00000E+00         0.00000E+00        -3.82970E+01
    0.60000   0.00000   0.57321         0.00000E+00         0.00000E+00         0.00000E+00        -3.83339E+01
    0.61250   0.00000   0.57451         0.00000E+00         0.00000E+00         0.00000E+00        -3.83740E+01
    0.62500   0.00000   0.57583         0.00000E+00         0.00000E+00         0.00000E+00        -3.84171E+01
    0.63750   0.00000   0.57718         0.00000E+00         0.00000E+00         0.00000E+00        -3.84635E+01
    0.65000   0.00000   0.57855         0.00000E+00         0.00000E+00         0.00000E+00        -3.85130E+01
    0.66250   0.00000   0.57993         0.00000E+00         0.00000E+00         0.00000E+00        -3.85659E+01
    0.67500   0.00000   0.58133         0.00000E+00         0.00000E+00         0.00000E+00        -3.86223E+01
    0.68750   0.00000   0.58272         0.00000E+00         0.00000E+00         0.00000E+00        -3.86821E+01
    0.70000   0.00000   0.58411         0.00000E+00         0.00000E+00         0.00000E+00        -3.87457E+01
    0.71250   0.00000   0.58551         0.00000E+00         0.00000E+00         0.00000E+00        -3.88129E+01
    0.72500   0.00000   0.58692         0.00000E+00         0.00000E+00         0.00000E+00        -3.88841E+01
    0.73750   0.00000   0.58837         0.00000E+00         0.00000E+00         0.00000E+00        -3.89594E+01
    0.75000   0.00000   0.58985         0.00000E+00         0.00000E+00         0.00000E+00        -3.90389E+01
    0.76250   0.00000   0.59138         0.00000E+00         0.00000E+00         0.00000E+00        -3.91228E+01
    0.77500   0.00000   0.59297         0.00000E+00         0.00000E+00         0.00000E+00        -3.92112E+01
    0.78750   0.00000   0.59458         0.00000E+00         0.00000E+00         0.00000E+00        -3.93043E+01
    0.80000   0.00000   0.59621         0.00000E+00         0.00000E+00         0.00000E+00        -3.94023E+01
    0.81250   0.00000   0.59783         0.00000E+00         0.00000E+00         0.00000E+00        -3.95053E+01
    0.82500   0.00000   0.59943         0.00000E+00         0.00000E+00         0.00000E+00        -3.96135E+01
    0.83750   0.00000   0.60101         0.00000E+00         0.00000E+00         0.00000E+00        -3.97271E+01
    0.85000   0.00000   0.60257         0.00000E+00         0.00000E+00         0.00000E+00        -3.98462E+01
    0.86250   0.00000   0.60412         0.00000E+00         0.00000E+00         0.00000E+00        -3.99710E+01
    0.87500   0.00000   0.60567         0.00000E+00         0.00000E+00         0.00000E+00        -4.01018E+01
    0.88750   0.00000   0.60723         0.00000E+00         0.00000E+00         0.00000E+00        -4.02387E+01
    0.90000   0.00000   0.60881         0.00000E+00         0.00000E+00         0.00000E+00        -4.03820E+01
    0.91250   0.00000   0.61040         0.00000E+00         0.00000E+00         0.00000E+00        -4.05322E+01
    0.92500   0.00000   0.61200         0.00000E+00         0.00000E+00         0.00000E+00        -4.06904E+01
    0.93750   0.00000   0.61360         0.00000E+00         0.00000E+00         0.00000E+00        -4.08586E+01
    0.95000   0.00000   0.61520         0.00000E+00         0.00000E+00         0.00000E+00        -4.10423E+01
    0.96250   0.00000   0.61678         0.00000E+00         0.00000E+00         0.00000E+00        -4.12546E+01
    0.97500   0.00000   0.61838         0.00000E+00         0.00000E+00         0.00000E+00        -4.15332E+01
    0.98750   0.00000   0.62003         0.00000E+00         0.00000E+00         0.00000E+00         1.15279E+01
    1.00000   0.00000   0.62176         0.00000E+00         0.00000E+00         0.00000E+00         6.47517E+01
    0.00000   0.01250   0.53656         0.00000E+00         0.00000E+00         0.00000E+00         6.61080E+00
    0.01250   0.01250   0.53655        -5.03675E-04        -2.67741E-02         9.61189E-03        -6.49685E+01
    0.02500   0.01250   0.53656        -2.40275E-04         1.13527E-02        -1.51590E-02        -1.36557E+02
    0.03750   0.01250   0.53660        -1.24679E-04         3.17478E-02        -7.26452E-03        -1.36664E+02
    0.05000   0.01250   0.53670        -5.86391E-05         4.29266E-02        -4.44750E-03        -1.36895E+02
    0.06250   0.01250   0.53684        -1.34690E-05         4.91384E-02        -3.18731E-03        -1.37171E+02
    0.07500   0.01250   0.53703         2.10663E-05         5.26211E-02        -2.51540E-03        -1.37455E+02
    0.08750   0.01250   0.53726         4.94386E-05         5.46156E-02        -2.11488E-03        -1.37732E+02
    0.10000   0.01250   0.53754         7.39609E-05         5.58371E-02        -1.86074E-03        -1.37993E+02
    0.11250   0.01250   0.53784         9.59798E-05         5.67067E-02        -1.69424E-03        -1.38238E+02
    0.12500   0.01250   0.53816         1.16339E-04         5.74740E-02        -1.58354E-03        -1.38467E+02
    0.13750   0.01250   0.53850         1.35591E-04         5.82848E-02        -1.50950E-03        -1.38682E+02
    0.15000   0.01250   0.53884         1.54100E-04         5.92203E-02        -1.45959E-03        -1.38886E+02
    0.16250   0.01250   0.53920         1.72104E-04         6.03202E-02        -1.42513E-03        -1.39081E+02
    0.17500   0.01250   0.53960         1.89751E-04         6.15981E-02        -1.39997E-03        -1.39271E+02
    0.18750   0.01250   0.54003         2.07125E-04         6.30504E-02        -1.37970E-03        -1.39456E+02
    0.20000   0.01250   0.54052         2.24266E-04         6.46630E-02        -1.36129E-03        -1.39641E+02
    0.21250   0.01250   0.54105         2.41180E-04         6.64159E-02        -1.34277E-03        -1.39825E+02
    0.22500   0.01250   0.54163         2.57858E-04         6.82863E-02        -1.32286E-03        -1.40011E+02
    0.23750   0.01250   0.54224         2.74275E-04         7.02504E-02        -1.30077E-03        -1.40200E+02
    0.25000   0.01250   0.54289         2.90400E-04         7.22847E-02        -1.27600E-03        -1.40394E+02
    0.26250   0.01250   0.54356         3.06197E-04         7.43669E-02        -1.24834E-03        -1.40592E+02
    0.27500   0.01250   0.54425         3.21631E-04         7.64759E-02        -1.21772E-03        -1.40795E+02
    0.28750   0.01250   0.54494         3.36663E-04         7.85918E-02        -1.18411E-03        -1.41005E+02
    0.30000   0.01250   0.54564         3.51256E-04         8.06961E-02        -1.14737E-03        -1.41220E+02
    0.31250   0.01250   0.54635         3.65370E-04         8.27704E-02        -1.10701E-03        -1.41443E+02
    0.32500   0.01250   0.54710         3.78954E-04         8.47963E-02        -1.06239E-03        -1.41672E+02
    0.33750   0.01250   0.54791         3.91952E-04         8.67546E-02        -1.01299E-03        -1.41909E+02
    0.35000   0.01250   0.54878         4.04302E-04         8.86267E-02        -9.58654E-04        -1.42152E+02
    0.36250   0.01250   0.54970         4.15941E-04         9.03950E-02        -8.99947E-04        -1.42402E+02
    0.37500   0.01250   0.55065         4.26823E-04         9.20445E-02        -8.37874E-04        -1.42658E+02
    0.38750   0.01250   0.55159         4.36911E-04         9.35630E-02        -7.73380E-04        -1.42921E+02
    0.40000   0.01250   0.55252         4.46180E-04         9.49407E-02        -7.06868E-04        -1.43190E+02
    0.41250   0.01250   0.55345         4.54605E-04         9.61683E-02        -6.38151E-04        -1.43464E+02
    0.42500   0.01250   0.55440         4.62157E-04         9.72366E-02        -5.66842E-04        -1.43743E+02
    0.43750   0.01250   0.55540         4.68799E-04         9.81356E-02        -4.92658E-04        -1.44027E+02
    0.45000   0.01250   0.55642         4.74496E-04         9.88554E-02        -4.15676E-04        -1.44316E+02
    0.46250   0.01250   0.55748         4.79214E-04         9.93866E-02        -3.36278E-04        -1.44608E+02
    0.47500   0.01250   0.55854         4.82925E-04         9.97205E-02        -2.54871E-04        -1.44904E+02
    0.48750   0.01250   0.55962         4.85608E-04         9.98488E-02        -1.71605E-04        -1.45203E+02
    0.50000   0.01250   0.56071         4.87238E-04         9.97628E-02        -8.61473E-05        -1.45504E+02
    0.51250   0.01250   0.56185         4.87785E-04         9.94526E-02         2.14087E-06        -1.45806E+02
    0.52500   0.01250   0.56306         4.87207E-04         9.89068E-02         9.38283E-05        -1.46110E+02
    0.53750   0.01250   0.56436         4.85461E-04         9.81131E-02         1.88897E-04        -1.46413E+02
    0.55000   0.01250   0.56570         4.82508E-04         9.70606E-02         2.86459E-04        -1.46717E+02
    0.56250   0.01250   0.56706         4.78323E-04         9.57408E-02         3.85176E-04        -1.47018E+02
    0.57500   0.01250   0.56839         4.72901E-04         9.41480E-02         4.83832E-04        -1.47318E+02
    0.58750   0.01250   0.56970         4.66249E-04         9.22788E-02         5.81806E-04        -1.47614E+02
    0.60000   0.01250   0.57101         4.58378E-04         9.01306E-02         6.79010E-04        -1.47905E+02
    0.61250   0.01250   0.57231         4.49297E-04         8.77006E-02         7.75493E-04        -1.48191E+02
    0.62500   0.01250   0.57364         4.39014E-04         8.49856E-02         8.71274E-04        -1.48471E+02
    0.63750   0.01250   0.57499         4.27538E-04         8.19821E-02         9.66166E-04        -1.48744E+02
    0.65000   0.01250   0.57638         4.14882E-04         7.86868E-02         1.05970E-03        -1.49008E+02
    0.66250   0.01250   0.57777         4.01067E-04         7.50967E-02         1.15128E-03        -1.49263E+02
    0.67500   0.01250   0.57918         3.86123E-04         7.12097E-02         1.24021E-03        -1.49506E+02
    0.68750   0.01250   0.58059         3.70085E-04         6.70243E-02         1.32577E-03        -1.49738E+02
    0.70000   0.01250   0.58199         3.53001E-04         6.25398E-02         1.40722E-03        -1.49956E+02
    0.71250   0.01250   0.58340         3.34927E-04         5.77559E-02         1.48392E-03        -1.50159E+02
    0.72500   0.01250   0.58483         3.15925E-04         5.26727E-02         1.55524E-03        -1.50346E+02
    0.73750   0.01250   0.58628         2.96068E-04         4.72907E-02         1.62033E-03        -1.50514E+02
    0.75000   0.01250   0.58777         2.75440E-04         4.16113E-02         1.67812E-03        -1.50663E+02
    0.76250   0.01250   0.58931         2.54138E-04         3.56380E-02         1.72714E-03        -1.50790E+02
    0.77500   0.01250   0.59090         2.32283E-04         2.93771E-02         1.76521E-03        -1.50894E+02
    0.78750   0.01250   0.59252         2.10030E-04         2.28403E-02         1.78941E-03        -1.50971E+02
    0.80000   0.01250   0.59415         1.87571E-04         1.60461E-02         1.79618E-03        -1.51020E+02
    0.81250   0.01250   0.59578         1.65148E-04         9.02201E-03         1.78127E-03        -1.51038E+02
    0.82500   0.01250   0.59739         1.43061E-04         1.80728E-03         1.73973E-03        -1.51023E+02
    0.83750   0.01250   0.59898         1.21677E-04        -5.54433E-03         1.66576E-03        -1.50971E+02
    0.85000   0.01250   0.60055         1.01439E-04        -1.29598E-02         1.55232E-03        -1.50880E+02
    0.86250   0.01250   0.60211         8.28911E-05        -2.03393E-02         1.39026E-03        -1.50748E+02
    0.87500   0.01250   0.60368         6.67051E-05        -2.75449E-02         1.16725E-03        -1.50572E+02
    0.88750   0.01250   0.60525         5.37322E-05        -3.43815E-02         8.65967E-04        -1.50351E+02
    0.90000   0.01250   0.60684         4.50782E-05        -4.05692E-02         4.60721E-04        -1.50084E+02
    0.91250   0.01250   0.60844         4.22365E-05        -4.56952E-02        -8.95488E-05        -1.49773E+02
    0.92500   0.01250   0.61004         4.73392E-05        -4.91355E-02        -8.57798E-04        -1.49423E+02
    0.93750   0.01250   0.61164         6.37037E-05        -4.99137E-02        -1.99471E-03        -1.49047E+02
    0.95000   0.01250   0.61324         9.72292E-05        -4.64346E-02        -3.87542E-03        -1.48671E+02
    0.96250   0.01250   0.61483         1.60611E-04        -3.59440E-02        -7.63619E-03        -1.48346E+02
    0.97500   0.01250   0.61643         2.88157E-04        -1.33641E-02        -1.73917E-02        -1.48171E+02
    0.98750   0.01250   0.61809         5.95428E-04         3.13010E-02         1.15272E-02        -6.84505E+01
    1.00000   0.01250   0.61983         0.00000E+00         0.00000E+00         0.00000E+00         1.12363E+01
    0.00000   0.02500   0.53396         0.00000E+00         0.00000E+00         0.00000E+00        -4.13589E+01
    0.01250   0.02500   0.53395        -6.69346E-04        -9.78769E-03        -1.13508E-02        -1.36094E+02
    0.02500   0.02500   0.53395         2.83823E-04         4.14918E-02        -5.85197E-02        -2.30967E+02
    0.03750   0.02500   0.53400         7.93701E-04         7.38970E-02        -3.15717E-02        -2.31372E+02
    0.05000   0.02500   0.53410         1.07317E-03         9.35042E-02        -1.73883E-02        -2.31968E+02
    0.06250   0.02500   0.53425         1.22846E-03         1.05127E-01        -9.69229E-03        -2.32640E+02
    0.07500   0.02500   0.53444         1.31553E-03         1.11932E-01        -5.47510E-03        -2.33328E+02
    0.08750   0.02500   0.53468         1.36539E-03         1.15921E-01        -3.21384E-03        -2.33999E+02
    0.10000   0.02500   0.53496         1.39593E-03         1.18348E-01        -2.08885E-03        -2.34641E+02
    0.11250   0.02500   0.53527         1.41767E-03         1.19997E-01        -1.63475E-03        -2.35248E+02
    0.12500   0.02500   0.53559         1.43685E-03         1.21357E-01        -1.57600E-03        -2.35820E+02
    0.13750   0.02500   0.53592         1.45712E-03         1.22724E-01        -1.74409E-03        -2.36361E+02
    0.15000   0.02500   0.53626         1.48051E-03         1.24274E-01        -2.03321E-03        -2.36875E+02
    0.16250   0.02500   0.53662         1.50800E-03         1.26097E-01        -2.37567E-03        -2.37367E+02
    0.17500   0.02500   0.53702         1.53995E-03         1.28236E-01        -2.72801E-03        -2.37841E+02
    0.18750   0.02500   0.53746         1.57626E-03         1.30692E-01        -3.06273E-03        -2.38301E+02
    0.20000   0.02500   0.53797         1.61657E-03         1.33450E-01        -3.36335E-03        -2.38753E+02
    0.21250   0.02500   0.53852         1.66039E-03         1.36476E-01        -3.62110E-03        -2.39200E+02
    0.22500   0.02500   0.53911         1.70715E-03         1.39732E-01        -3.83227E-03        -2.39644E+02
    0.23750   0.02500   0.53974         1.75625E-03         1.43176E-01        -3.99628E-03        -2.40088E+02
    0.25000   0.02500   0.54039         1.80711E-03         1.46764E-01        -4.11441E-03        -2.40535E+02
    0.26250   0.02500   0.54106         1.85917E-03         1.50454E-01        -4.18899E-03        -2.40986E+02
    0.27500   0.02500   0.54174         1.91189E-03         1.54206E-01        -4.22272E-03        -2.41443E+02
    0.28750   0.02500   0.54244         1.96479E-03         1.57980E-01        -4.21805E-03        -2.41907E+02
    0.30000   0.02500   0.54314         2.01739E-03         1.61739E-01        -4.17644E-03        -2.42380E+02
    0.31250   0.02500   0.54386         2.06925E-03         1.65447E-01        -4.09799E-03        -2.42860E+02
    0.32500   0.02500   0.54462         2.11990E-03         1.69067E-01        -3.98205E-03        -2.43350E+02
    0.33750   0.02500   0.54544         2.16886E-03         1.72563E-01        -3.82834E-03        -2.43850E+02
    0.35000   0.02500   0.54631         2.21566E-03         1.75899E-01        -3.63823E-03        -2.44359E+02
    0.36250   0.02500   0.54723         2.25986E-03         1.79041E-01        -3.41559E-03        -2.44877E+02
    0.37500   0.02500   0.54818         2.30110E-03         1.81962E-01        -3.16584E-03        -2.45404E+02
    0.38750   0.02500   0.54913         2.33906E-03         1.84635E-01        -2.89405E-03        -2.45941E+02
    0.40000   0.02500   0.55007         2.37351E-03         1.87038E-01        -2.60316E-03        -2.46485E+02
    0.41250   0.02500   0.55103         2.40420E-03         1.89153E-01        -2.29373E-03        -2.47037E+02
    0.42500   0.02500   0.55200         2.43090E-03         1.90958E-01        -1.96512E-03        -2.47596E+02
    0.43750   0.02500   0.55301         2.45338E-03         1.92434E-01        -1.61671E-03        -2.48161E+02
    0.45000   0.02500   0.55404         2.47137E-03         1.93561E-01        -1.24890E-03        -2.48731E+02
    0.46250   0.02500   0.55510         2.48465E-03         1.94322E-01        -8.62944E-04        -2.49306E+02
    0.47500   0.02500   0.55617         2.49300E-03         1.94697E-01        -4.60019E-04        -2.49884E+02
    0.48750   0.02500   0.55725         2.49621E-03         1.94669E-01        -4.01791E-05        -2.50465E+02
    0.50000   0.02500   0.55836         2.49406E-03         1.94220E-01         3.98303E-04        -2.51046E+02
    0.51250   0.02500   0.55951         2.48630E-03         1.93330E-01         8.58179E-04        -2.51628E+02
    0.52500   0.02500   0.56072         2.47265E-03         1.91978E-01         1.34161E-03        -2.52209E+02
    0.53750   0.02500   0.56202         2.45281E-03         1.90143E-01         1.84826E-03        -2.52787E+02
    0.55000   0.02500   0.56337         2.42650E-03         1.87804E-01         2.37449E-03        -2.53361E+02
    0.56250   0.02500   0.56473         2.39350E-03         1.84946E-01         2.91481E-03        -2.53929E+02
    0.57500   0.02500   0.56608         2.35368E-03         1.81556E-01         3.46410E-03        -2.54488E+02
    0.58750   0.02500   0.56740         2.30695E-03         1.77625E-01         4.01947E-03        -2.55039E+02
    0.60000   0.02500   0.56871         2.25325E-03         1.73146E-01         4.58031E-03        -2.55577E+02
    0.61250   0.02500   0.57002         2.19250E-03         1.68113E-01         5.14711E-03        -2.56102E+02
    0.62500   0.02500   0.57136         2.12462E-03         1.62517E-01         5.72059E-03        -2.56610E+02
    0.63750   0.02500   0.57273         2.04954E-03         1.56354E-01         6.30096E-03        -2.57102E+02
    0.65000   0.02500   0.57412         1.96715E-03         1.49617E-01         6.88757E-03        -2.57572E+02
    0.66250   0.02500   0.57553         1.87740E-03         1.42299E-01         7.47921E-03        -2.58021E+02
    0.67500   0.02500   0.57694         1.78023E-03         1.34399E-01         8.07450E-03        -2.58444E+02
    0.68750   0.02500   0.57836         1.67559E-03         1.25911E-01         8.67199E-03        -2.58840E+02
    0.70000   0.02500   0.57978         1.56348E-03         1.16835E-01         9.27049E-03        -2.59205E+02
    0.71250   0.02500   0.58121         1.44388E-03         1.07170E-01         9.86921E-03        -2.59537E+02
    0.72500   0.02500   0.58265         1.31680E-03         9.69168E-02         1.04674E-02        -2.59833E+02
    0.73750   0.02500   0.58411         1.18225E-03         8.60786E-02         1.10635E-02        -2.60089E+02
    0.75000   0.02500   0.58562         1.04027E-03         7.46607E-02         1.16548E-02        -2.60301E+02
    0.76250   0.02500   0.58717         8.90933E-04         6.26731E-02         1.22363E-02        -2.60466E+02
    0.77500   0.02500   0.58876         7.34411E-04         5.01328E-02         1.27998E-02        -2.60580E+02
    0.78750   0.02500   0.59039         5.70990E-04         3.70670E-02         1.33332E-02        -2.60638E+02
    0.80000   0.02500   0.59203         4.01133E-04         2.35169E-02         1.38204E-02        -2.60636E+02
    0.81250   0.02500   0.59366         2.25532E-04         9.54128E-03         1.42409E-02        -2.60568E+02
    0.82500   0.02500   0.59528         4.51636E-05        -4.77778E-03         1.45684E-02        -2.60429E+02
    0.83750   0.02500   0.59688        -1.38627E-04        -1.93285E-02         1.47692E-02        -2.60215E+02
    0.85000   0.02500   0.59846        -3.24013E-04        -3.39600E-02         1.47971E-02        -2.59920E+02
    0.86250   0.02500   0.60003        -5.08502E-04        -4.84673E-02         1.45872E-02        -2.59540E+02
    0.87500   0.02500   0.60160        -6.88640E-04        -6.25697E-02         1.40443E-02        -2.59071E+02
    0.88750   0.02500   0.60319        -8.59557E-04        -7.58773E-02         1.30264E-02        -2.58510E+02
    0.90000   0.02500   0.60478        -1.01425E-03        -8.78405E-02         1.13158E-02        -2.57857E+02
    0.91250   0.02500   0.60639        -1.14240E-03        -9.76716E-02         8.56843E-03        -2.57117E+02
    0.92500   0.02500   0.60800        -1.22841E-03        -1.04222E-01         4.22059E-03        -2.56302E+02
    0.93750   0.02500   0.60961        -1.24786E-03        -1.05788E-01        -2.69885E-03        -2.55436E+02
    0.95000   0.02500   0.61121        -1.16088E-03        -9.97954E-02        -1.39676E-02        -2.54568E+02
    0.96250   0.02500   0.61281        -8.98620E-04        -8.23364E-02        -3.30684E-02        -2.53781E+02
    0.97500   0.02500   0.61442        -3.34121E-04        -4.76459E-02        -6.72429E-02        -2.53222E+02
    0.98750   0.02500   0.61609         7.82506E-04         1.13833E-02        -1.33627E-02        -1.47600E+02
    1.00000   0.02500   0.61784         0.00000E+00         0.00000E+00         0.00000E+00        -4.21768E+01
    0.00000   0.03750   0.53118         0.00000E+00         0.00000E+00         0.00000E+00        -4.11626E+01
    0.01250   0.03750   0.53117        -7.48361E-04        -4.44285E-03        -3.18777E-02        -1.34454E+02
    0.02500   0.03750   0.53118         7.97026E-04         3.98610E-02        -9.88412E-02        -2.27832E+02
    0.03750   0.03750   0.53123         1.72275E-03         7.30232E-02        -5.92744E-02        -2.28121E+02
    0.05000   0.03750   0.53134         2.27897E-03         9.66468E-02        -3.56746E-02        -2.28587E+02
    0.06250   0.03750   0.53150         2.61470E-03         1.13204E-01        -2.16124E-02        -2.29143E+02
    0.07500   0.03750   0.53170         2.81936E-03         1.24869E-01        -1.33071E-02        -2.29733E+02
    0.08750   0.03750   0.53194         2.94746E-03         1.33289E-01        -8.52825E-03        -2.30326E+02
    0.10000   0.03750   0.53221         3.03265E-03         1.39641E-01        -5.93470E-03        -2.30906E+02
    0.11250   0.03750   0.53251         3.09591E-03         1.44744E-01        -4.70107E-03        -2.31464E+02
    0.12500   0.03750   0.53282         3.15026E-03         1.49153E-01        -4.30828E-03        -2.31998E+02
    0.13750   0.03750   0.53315         3.20370E-03         1.53241E-01        -4.42362E-03        -2.32508E+02
    0.15000   0.03750   0.53349         3.26094E-03         1.57249E-01        -4.83016E-03        -2.32998E+02
    0.16250   0.03750   0.53386         3.32454E-03         1.61326E-01        -5.38468E-03        -2.33470E+02
    0.17500   0.03750   0.53426         3.39564E-03         1.65557E-01        -5.99244E-03        -2.33928E+02
    0.18750   0.03750   0.53472         3.47443E-03         1.69982E-01        -6.59142E-03        -2.34376E+02
    0.20000   0.03750   0.53524         3.56051E-03         1.74609E-01        -7.14249E-03        -2.34816E+02
    0.21250   0.03750   0.53581         3.65308E-03         1.79427E-01        -7.62273E-03        -2.35252E+02
    0.22500   0.03750   0.53641         3.75116E-03         1.84409E-01        -8.02019E-03        -2.35687E+02
    0.23750   0.03750   0.53705         3.85367E-03         1.89522E-01        -8.33004E-03        -2.36123E+02
    0.25000   0.03750   0.53770         3.95949E-03         1.94727E-01        -8.55187E-03        -2.36561E+02
    0.26250   0.03750   0.53837         4.06755E-03         1.99983E-01        -8.68781E-03        -2.37004E+02
    0.27500   0.03750   0.53906         4.17677E-03         2.05249E-01        -8.74116E-03        -2.37452E+02
    0.28750   0.03750   0.53975         4.28616E-03         2.10483E-01        -8.71522E-03        -2.37908E+02