VARIABLES="X","Y","T","STRL","U","V","P"
 ZONE T="FLOW",I= 101 , J= 101 , F=POINT
    0.00000   0.00000   0.53905         0.00000E+00         0.00000E+00         0.00000E+00         2.10370E+02
    0.01000   0.00000   0.53903         0.00000E+00         0.00000E+00         0.00000E+00        -2.62983E+02
    0.02000   0.00000   0.53903         0.00000E+00         0.00000E+00         0.00000E+00        -7.35355E+02
    0.03000   0.00000   0.53905         0.00000E+00         0.00000E+00         0.00000E+00        -7.33650E+02
    0.04000   0.00000   0.53911         0.00000E+00         0.00000E+00         0.00000E+00        -7.32311E+02
    0.05000   0.00000   0.53919         0.00000E+00         0.00000E+00         0.00000E+00        -7.31134E+02
    0.06000   0.00000   0.53930         0.00000E+00         0.00000E+00         0.00000E+00        -7.30046E+02
    0.07000   0.00000   0.53943         0.00000E+00         0.00000E+00         0.00000E+00        -7.29015E+02
    0.08000   0.00000   0.53960         0.00000E+00         0.00000E+00         0.00000E+00        -7.28029E+02
    0.09000   0.00000   0.53979         0.00000E+00         0.00000E+00         0.00000E+00        -7.27082E+02
    0.10000   0.00000   0.54001         0.00000E+00         0.00000E+00         0.00000E+00        -7.26174E+02
    0.11000   0.00000   0.54024         0.00000E+00         0.00000E+00         0.00000E+00        -7.25303E+02
    0.12000   0.00000   0.54049         0.00000E+00         0.00000E+00         0.00000E+00        -7.24470E+02
    0.13000   0.00000   0.54074         0.00000E+00         0.00000E+00         0.00000E+00        -7.23675E+02
    0.14000   0.00000   0.54101         0.00000E+00         0.00000E+00         0.00000E+00        -7.22917E+02
    0.15000   0.00000   0.54129         0.00000E+00         0.00000E+00         0.00000E+00        -7.22197E+02
    0.16000   0.00000   0.54158         0.00000E+00         0.00000E+00         0.00000E+00        -7.21513E+02
    0.17000   0.00000   0.54189         0.00000E+00         0.00000E+00         0.00000E+00        -7.20865E+02
    0.18000   0.00000   0.54222         0.00000E+00         0.00000E+00         0.00000E+00        -7.20253E+02
    0.19000   0.00000   0.54258         0.00000E+00         0.00000E+00         0.00000E+00        -7.19675E+02
    0.20000   0.00000   0.54296         0.00000E+00         0.00000E+00         0.00000E+00        -7.19131E+02
    0.21000   0.00000   0.54337         0.00000E+00         0.00000E+00         0.00000E+00        -7.18620E+02
    0.22000   0.00000   0.54380         0.00000E+00         0.00000E+00         0.00000E+00        -7.18139E+02
    0.23000   0.00000   0.54427         0.00000E+00         0.00000E+00         0.00000E+00        -7.17690E+02
    0.24000   0.00000   0.54476         0.00000E+00         0.00000E+00         0.00000E+00        -7.17269E+02
    0.25000   0.00000   0.54528         0.00000E+00         0.00000E+00         0.00000E+00        -7.16877E+02
    0.26000   0.00000   0.54582         0.00000E+00         0.00000E+00         0.00000E+00        -7.16512E+02
    0.27000   0.00000   0.54637         0.00000E+00         0.00000E+00         0.00000E+00        -7.16172E+02
    0.28000   0.00000   0.54692         0.00000E+00         0.00000E+00         0.00000E+00        -7.15858E+02
    0.29000   0.00000   0.54747         0.00000E+00         0.00000E+00         0.00000E+00        -7.15568E+02
    0.30000   0.00000   0.54803         0.00000E+00         0.00000E+00         0.00000E+00        -7.15302E+02
    0.31000   0.00000   0.54859         0.00000E+00         0.00000E+00         0.00000E+00        -7.15058E+02
    0.32000   0.00000   0.54917         0.00000E+00         0.00000E+00         0.00000E+00        -7.14836E+02
    0.33000   0.00000   0.54978         0.00000E+00         0.00000E+00         0.00000E+00        -7.14635E+02
    0.34000   0.00000   0.55044         0.00000E+00         0.00000E+00         0.00000E+00        -7.14454E+02
    0.35000   0.00000   0.55114         0.00000E+00         0.00000E+00         0.00000E+00        -7.14293E+02
    0.36000   0.00000   0.55189         0.00000E+00         0.00000E+00         0.00000E+00        -7.14151E+02
    0.37000   0.00000   0.55264         0.00000E+00         0.00000E+00         0.00000E+00        -7.14028E+02
    0.38000   0.00000   0.55340         0.00000E+00         0.00000E+00         0.00000E+00        -7.13922E+02
    0.39000   0.00000   0.55414         0.00000E+00         0.00000E+00         0.00000E+00        -7.13834E+02
    0.40000   0.00000   0.55487         0.00000E+00         0.00000E+00         0.00000E+00        -7.13762E+02
    0.41000   0.00000   0.55560         0.00000E+00         0.00000E+00         0.00000E+00        -7.13707E+02
    0.42000   0.00000   0.55633         0.00000E+00         0.00000E+00         0.00000E+00        -7.13667E+02
    0.43000   0.00000   0.55709         0.00000E+00         0.00000E+00         0.00000E+00        -7.13643E+02
    0.44000   0.00000   0.55789         0.00000E+00         0.00000E+00         0.00000E+00        -7.13634E+02
    0.45000   0.00000   0.55871         0.00000E+00         0.00000E+00         0.00000E+00        -7.13640E+02
    0.46000   0.00000   0.55954         0.00000E+00         0.00000E+00         0.00000E+00        -7.13662E+02
    0.47000   0.00000   0.56039         0.00000E+00         0.00000E+00         0.00000E+00        -7.13697E+02
    0.48000   0.00000   0.56124         0.00000E+00         0.00000E+00         0.00000E+00        -7.13748E+02
    0.49000   0.00000   0.56210         0.00000E+00         0.00000E+00         0.00000E+00        -7.13812E+02
    0.50000   0.00000   0.56297         0.00000E+00         0.00000E+00         0.00000E+00        -7.13891E+02
    0.51000   0.00000   0.56387         0.00000E+00         0.00000E+00         0.00000E+00        -7.13985E+02
    0.52000   0.00000   0.56481         0.00000E+00         0.00000E+00         0.00000E+00        -7.14093E+02
    0.53000   0.00000   0.56581         0.00000E+00         0.00000E+00         0.00000E+00        -7.14216E+02
    0.54000   0.00000   0.56685         0.00000E+00         0.00000E+00         0.00000E+00        -7.14353E+02
    0.55000   0.00000   0.56793         0.00000E+00         0.00000E+00         0.00000E+00        -7.14504E+02
    0.56000   0.00000   0.56901         0.00000E+00         0.00000E+00         0.00000E+00        -7.14671E+02
    0.57000   0.00000   0.57008         0.00000E+00         0.00000E+00         0.00000E+00        -7.14851E+02
    0.58000   0.00000   0.57114         0.00000E+00         0.00000E+00         0.00000E+00        -7.15047E+02
    0.59000   0.00000   0.57218         0.00000E+00         0.00000E+00         0.00000E+00        -7.15257E+02
    0.60000   0.00000   0.57321         0.00000E+00         0.00000E+00         0.00000E+00        -7.15482E+02
    0.61000   0.00000   0.57425         0.00000E+00         0.00000E+00         0.00000E+00        -7.15723E+02
    0.62000   0.00000   0.57530         0.00000E+00         0.00000E+00         0.00000E+00        -7.15979E+02
    0.63000   0.00000   0.57637         0.00000E+00         0.00000E+00         0.00000E+00        -7.16252E+02
    0.64000   0.00000   0.57745         0.00000E+00         0.00000E+00         0.00000E+00        -7.16541E+02
    0.65000   0.00000   0.57855         0.00000E+00         0.00000E+00         0.00000E+00        -7.16847E+02
    0.66000   0.00000   0.57965         0.00000E+00         0.00000E+00         0.00000E+00        -7.17171E+02
    0.67000   0.00000   0.58077         0.00000E+00         0.00000E+00         0.00000E+00        -7.17513E+02
    0.68000   0.00000   0.58188         0.00000E+00         0.00000E+00         0.00000E+00        -7.17873E+02
    0.69000   0.00000   0.58300         0.00000E+00         0.00000E+00         0.00000E+00        -7.18253E+02
    0.70000   0.00000   0.58411         0.00000E+00         0.00000E+00         0.00000E+00        -7.18653E+02
    0.71000   0.00000   0.58523         0.00000E+00         0.00000E+00         0.00000E+00        -7.19073E+02
    0.72000   0.00000   0.58636         0.00000E+00         0.00000E+00         0.00000E+00        -7.19515E+02
    0.73000   0.00000   0.58750         0.00000E+00         0.00000E+00         0.00000E+00        -7.19979E+02
    0.74000   0.00000   0.58866         0.00000E+00         0.00000E+00         0.00000E+00        -7.20465E+02
    0.75000   0.00000   0.58985         0.00000E+00         0.00000E+00         0.00000E+00        -7.20976E+02
    0.76000   0.00000   0.59107         0.00000E+00         0.00000E+00         0.00000E+00        -7.21510E+02
    0.77000   0.00000   0.59233         0.00000E+00         0.00000E+00         0.00000E+00        -7.22070E+02
    0.78000   0.00000   0.59361         0.00000E+00         0.00000E+00         0.00000E+00        -7.22655E+02
    0.79000   0.00000   0.59490         0.00000E+00         0.00000E+00         0.00000E+00        -7.23266E+02
    0.80000   0.00000   0.59621         0.00000E+00         0.00000E+00         0.00000E+00        -7.23904E+02
    0.81000   0.00000   0.59751         0.00000E+00         0.00000E+00         0.00000E+00        -7.24569E+02
    0.82000   0.00000   0.59879         0.00000E+00         0.00000E+00         0.00000E+00        -7.25262E+02
    0.83000   0.00000   0.60006         0.00000E+00         0.00000E+00         0.00000E+00        -7.25982E+02
    0.84000   0.00000   0.60132         0.00000E+00         0.00000E+00         0.00000E+00        -7.26731E+02
    0.85000   0.00000   0.60257         0.00000E+00         0.00000E+00         0.00000E+00        -7.27509E+02
    0.86000   0.00000   0.60381         0.00000E+00         0.00000E+00         0.00000E+00        -7.28315E+02
    0.87000   0.00000   0.60505         0.00000E+00         0.00000E+00         0.00000E+00        -7.29150E+02
    0.88000   0.00000   0.60629         0.00000E+00         0.00000E+00         0.00000E+00        -7.30013E+02
    0.89000   0.00000   0.60755         0.00000E+00         0.00000E+00         0.00000E+00        -7.30905E+02
    0.90000   0.00000   0.60881         0.00000E+00         0.00000E+00         0.00000E+00        -7.31825E+02
    0.91000   0.00000   0.61008         0.00000E+00         0.00000E+00         0.00000E+00        -7.32774E+02
    0.92000   0.00000   0.61136         0.00000E+00         0.00000E+00         0.00000E+00        -7.33754E+02
    0.93000   0.00000   0.61264         0.00000E+00         0.00000E+00         0.00000E+00        -7.34769E+02
    0.94000   0.00000   0.61392         0.00000E+00         0.00000E+00         0.00000E+00        -7.35827E+02
    0.95000   0.00000   0.61520         0.00000E+00         0.00000E+00         0.00000E+00        -7.36949E+02
    0.96000   0.00000   0.61647         0.00000E+00         0.00000E+00         0.00000E+00        -7.38178E+02
    0.97000   0.00000   0.61774         0.00000E+00         0.00000E+00         0.00000E+00        -7.39613E+02
    0.98000   0.00000   0.61904         0.00000E+00         0.00000E+00         0.00000E+00        -7.41507E+02
    0.99000   0.00000   0.62037         0.00000E+00         0.00000E+00         0.00000E+00        -2.13483E+02
    1.00000   0.00000   0.62176         0.00000E+00         0.00000E+00         0.00000E+00         3.15649E+02
    0.00000   0.01000   0.53707         0.00000E+00         0.00000E+00         0.00000E+00        -2.64824E+02
    0.01000   0.01000   0.53705        -3.26953E-03        -2.05808E-01         8.00117E-02        -9.74158E+02
    0.02000   0.01000   0.53705        -1.60022E-03         1.29962E-01        -1.21372E-01        -1.68374E+03
    0.03000   0.01000   0.53707        -8.42084E-04         3.20745E-01        -5.98781E-02        -1.68493E+03
    0.04000   0.01000   0.53712        -4.02643E-04         4.31933E-01        -3.69555E-02        -1.68718E+03
    0.05000   0.01000   0.53720        -1.02960E-04         4.97271E-01        -2.62753E-02        -1.68990E+03
    0.06000   0.01000   0.53731         1.22877E-04         5.35279E-01        -2.03654E-02        -1.69280E+03
    0.07000   0.01000   0.53745         3.04362E-04         5.56742E-01        -1.67063E-02        -1.69571E+03
    0.08000   0.01000   0.53762         4.57016E-04         5.68244E-01        -1.42828E-02        -1.69854E+03
    0.09000   0.01000   0.53782         5.90033E-04         5.73938E-01        -1.26138E-02        -1.70126E+03
    0.10000   0.01000   0.53804         7.09307E-04         5.76491E-01        -1.14386E-02        -1.70384E+03
    0.11000   0.01000   0.53828         8.18820E-04         5.77634E-01        -1.06015E-02        -1.70630E+03
    0.12000   0.01000   0.53853         9.21351E-04         5.78488E-01        -1.00021E-02        -1.70863E+03
    0.13000   0.01000   0.53879         1.01888E-03         5.79761E-01        -9.57222E-03        -1.71085E+03
    0.14000   0.01000   0.53906         1.11281E-03         5.81891E-01        -9.26346E-03        -1.71297E+03
    0.15000   0.01000   0.53934         1.20416E-03         5.85123E-01        -9.03985E-03        -1.71501E+03
    0.16000   0.01000   0.53962         1.29362E-03         5.89571E-01        -8.87409E-03        -1.71698E+03
    0.17000   0.01000   0.53993         1.38166E-03         5.95258E-01        -8.74540E-03        -1.71890E+03
    0.18000   0.01000   0.54026         1.46854E-03         6.02143E-01        -8.63785E-03        -1.72078E+03
    0.19000   0.01000   0.54062         1.55443E-03         6.10143E-01        -8.53943E-03        -1.72264E+03
    0.20000   0.01000   0.54101         1.63935E-03         6.19145E-01        -8.44150E-03        -1.72448E+03
    0.21000   0.01000   0.54144         1.72327E-03         6.29025E-01        -8.33817E-03        -1.72631E+03
    0.22000   0.01000   0.54188         1.80613E-03         6.39649E-01        -8.22549E-03        -1.72813E+03
    0.23000   0.01000   0.54236         1.88780E-03         6.50885E-01        -8.10076E-03        -1.72997E+03
    0.24000   0.01000   0.54286         1.96816E-03         6.62600E-01        -7.96226E-03        -1.73182E+03
    0.25000   0.01000   0.54338         2.04706E-03         6.74670E-01        -7.80908E-03        -1.73369E+03
    0.26000   0.01000   0.54391         2.12435E-03         6.86976E-01        -7.64102E-03        -1.73558E+03
    0.27000   0.01000   0.54446         2.19989E-03         6.99407E-01        -7.45825E-03        -1.73749E+03
    0.28000   0.01000   0.54501         2.27353E-03         7.11860E-01        -7.26122E-03        -1.73943E+03
    0.29000   0.01000   0.54557         2.34513E-03         7.24240E-01        -7.05039E-03        -1.74139E+03
    0.30000   0.01000   0.54612         2.41455E-03         7.36455E-01        -6.82546E-03        -1.74339E+03
    0.31000   0.01000   0.54669         2.48165E-03         7.48419E-01        -6.58506E-03        -1.74542E+03
    0.32000   0.01000   0.54728         2.54627E-03         7.60044E-01        -6.32744E-03        -1.74748E+03
    0.33000   0.01000   0.54789         2.60822E-03         7.71244E-01        -6.05093E-03        -1.74956E+03
    0.34000   0.01000   0.54855         2.66730E-03         7.81931E-01        -5.75434E-03        -1.75168E+03
    0.35000   0.01000   0.54926         2.72332E-03         7.92023E-01        -5.43811E-03        -1.75383E+03
    0.36000   0.01000   0.55000         2.77608E-03         8.01443E-01        -5.10501E-03        -1.75601E+03
    0.37000   0.01000   0.55075         2.82543E-03         8.10127E-01        -4.75902E-03        -1.75821E+03
    0.38000   0.01000   0.55151         2.87127E-03         8.18026E-01        -4.40425E-03        -1.76044E+03
    0.39000   0.01000   0.55225         2.91353E-03         8.25101E-01        -4.04389E-03        -1.76268E+03
    0.40000   0.01000   0.55299         2.95217E-03         8.31323E-01        -3.67900E-03        -1.76495E+03
    0.41000   0.01000   0.55373         2.98713E-03         8.36664E-01        -3.30905E-03        -1.76724E+03
    0.42000   0.01000   0.55449         3.01836E-03         8.41098E-01        -2.93306E-03        -1.76954E+03
    0.43000   0.01000   0.55526         3.04580E-03         8.44599E-01        -2.55008E-03        -1.77185E+03
    0.44000   0.01000   0.55606         3.06938E-03         8.47140E-01        -2.15988E-03        -1.77417E+03
    0.45000   0.01000   0.55689         3.08902E-03         8.48693E-01        -1.76350E-03        -1.77650E+03
    0.46000   0.01000   0.55773         3.10466E-03         8.49238E-01        -1.36260E-03        -1.77884E+03
    0.47000   0.01000   0.55858         3.11628E-03         8.48755E-01        -9.58843E-04        -1.78118E+03
    0.48000   0.01000   0.55943         3.12385E-03         8.47229E-01        -5.53427E-04        -1.78352E+03
    0.49000   0.01000   0.56029         3.12737E-03         8.44645E-01        -1.46111E-04        -1.78586E+03
    0.50000   0.01000   0.56117         3.12679E-03         8.40984E-01         2.65009E-04        -1.78820E+03
    0.51000   0.01000   0.56207         3.12208E-03         8.36221E-01         6.82511E-04        -1.79052E+03
    0.52000   0.01000   0.56302         3.11316E-03         8.30324E-01         1.10891E-03        -1.79284E+03
    0.53000   0.01000   0.56403         3.09992E-03         8.23256E-01         1.54567E-03        -1.79514E+03
    0.54000   0.01000   0.56507         3.08226E-03         8.14977E-01         1.99161E-03        -1.79743E+03
    0.55000   0.01000   0.56615         3.06010E-03         8.05457E-01         2.44319E-03        -1.79970E+03
    0.56000   0.01000   0.56724         3.03341E-03         7.94671E-01         2.89614E-03        -1.80194E+03
    0.57000   0.01000   0.56831         3.00219E-03         7.82607E-01         3.34645E-03        -1.80416E+03
    0.58000   0.01000   0.56937         2.96649E-03         7.69260E-01         3.79183E-03        -1.80635E+03
    0.59000   0.01000   0.57041         2.92637E-03         7.54626E-01         4.23217E-03        -1.80851E+03
    0.60000   0.01000   0.57145         2.88186E-03         7.38702E-01         4.66832E-03        -1.81063E+03
    0.61000   0.01000   0.57249         2.83302E-03         7.21479E-01         5.10134E-03        -1.81270E+03
    0.62000   0.01000   0.57355         2.77985E-03         7.02943E-01         5.53230E-03        -1.81473E+03
    0.63000   0.01000   0.57462         2.72238E-03         6.83076E-01         5.96194E-03        -1.81672E+03
    0.64000   0.01000   0.57571         2.66063E-03         6.61852E-01         6.39015E-03        -1.81865E+03
    0.65000   0.01000   0.57681         2.59460E-03         6.39247E-01         6.81616E-03        -1.82053E+03
    0.66000   0.01000   0.57793         2.52432E-03         6.15230E-01         7.23901E-03        -1.82234E+03
    0.67000   0.01000   0.57905         2.44983E-03         5.89773E-01         7.65767E-03        -1.82409E+03
    0.68000   0.01000   0.58018         2.37118E-03         5.62841E-01         8.07092E-03        -1.82577E+03
    0.69000   0.01000   0.58130         2.28843E-03         5.34399E-01         8.47741E-03        -1.82737E+03
    0.70000   0.01000   0.58242         2.20165E-03         5.04410E-01         8.87599E-03        -1.82889E+03
    0.71000   0.01000   0.58355         2.11092E-03         4.72830E-01         9.26584E-03        -1.83033E+03
    0.72000   0.01000   0.58468         2.01634E-03         4.39614E-01         9.64608E-03        -1.83166E+03
    0.73000   0.01000   0.58583         1.91801E-03         4.04709E-01         1.00153E-02        -1.83290E+03
    0.74000   0.01000   0.58700         1.81605E-03         3.68061E-01         1.03714E-02        -1.83402E+03
    0.75000   0.01000   0.58819         1.71060E-03         3.29613E-01         1.07113E-02        -1.83503E+03
    0.76000   0.01000   0.58942         1.60184E-03         2.89311E-01         1.10309E-02        -1.83591E+03
    0.77000   0.01000   0.59068         1.49000E-03         2.47109E-01         1.13237E-02        -1.83664E+03
    0.78000   0.01000   0.59196         1.37538E-03         2.02970E-01         1.15805E-02        -1.83722E+03
    0.79000   0.01000   0.59326         1.25840E-03         1.56882E-01         1.17903E-02        -1.83764E+03
    0.80000   0.01000   0.59457         1.13959E-03         1.08856E-01         1.19398E-02        -1.83788E+03
    0.81000   0.01000   0.59587         1.01962E-03         5.89362E-02         1.20138E-02        -1.83792E+03
    0.82000   0.01000   0.59716         8.99329E-04         7.21120E-03         1.19946E-02        -1.83775E+03
    0.83000   0.01000   0.59844         7.79743E-04        -4.61810E-02         1.18622E-02        -1.83736E+03
    0.84000   0.01000   0.59970         6.62099E-04        -1.01037E-01         1.15935E-02        -1.83672E+03
    0.85000   0.01000   0.60096         5.47887E-04        -1.57071E-01         1.11607E-02        -1.83581E+03
    0.86000   0.01000   0.60220         4.38899E-04        -2.13884E-01         1.05297E-02        -1.83463E+03
    0.87000   0.01000   0.60345         3.37308E-04        -2.70929E-01         9.65753E-03        -1.83314E+03
    0.88000   0.01000   0.60470         2.45763E-04        -3.27460E-01         8.48949E-03        -1.83134E+03
    0.89000   0.01000   0.60597         1.67532E-04        -3.82450E-01         6.95406E-03        -1.82922E+03
    0.90000   0.01000   0.60724         1.06696E-04        -4.34491E-01         4.95472E-03        -1.82675E+03
    0.91000   0.01000   0.60851         6.84523E-05        -4.81627E-01         2.35583E-03        -1.82396E+03
    0.92000   0.01000   0.60979         5.95939E-05        -5.21118E-01        -1.04430E-03        -1.82084E+03
    0.93000   0.01000   0.61108         8.93526E-05        -5.49053E-01        -5.57104E-03        -1.81744E+03
    0.94000   0.01000   0.61236         1.71029E-04        -5.59735E-01        -1.18095E-02        -1.81383E+03
    0.95000   0.01000   0.61363         3.25558E-04        -5.44582E-01        -2.09721E-02        -1.81013E+03
    0.96000   0.01000   0.61491         5.90486E-04        -4.90106E-01        -3.60346E-02        -1.80659E+03
    0.97000   0.01000   0.61618         1.04626E-03        -3.73869E-01        -6.57643E-02        -1.80360E+03
    0.98000   0.01000   0.61748         1.90579E-03        -1.55868E-01        -1.40941E-01        -1.80189E+03
    0.99000   0.01000   0.61882         3.86509E-03         2.40377E-01         9.52901E-02        -1.00856E+03
    1.00000   0.01000   0.62022         0.00000E+00         0.00000E+00         0.00000E+00        -2.15652E+02
    0.00000   0.02000   0.53502         0.00000E+00         0.00000E+00         0.00000E+00        -7.39651E+02
    0.01000   0.02000   0.53501        -4.11615E-03        -6.35179E-02        -1.29960E-01        -1.68091E+03
    0.02000   0.02000   0.53501         2.59924E-03         4.11664E-01        -5.26551E-01        -2.62343E+03
    0.03000   0.02000   0.53503         6.41490E-03         7.23820E-01        -3.01969E-01        -2.62707E+03
    0.04000   0.02000   0.53508         8.63866E-03         9.21904E-01        -1.76524E-01        -2.63242E+03
    0.05000   0.02000   0.53516         9.94542E-03         1.04502E+00        -1.03344E-01        -2.63861E+03
    0.06000   0.02000   0.53527         1.07056E-02         1.11967E+00        -5.94690E-02        -2.64513E+03
    0.07000   0.02000   0.53541         1.11348E-02         1.16329E+00        -3.29639E-02        -2.65167E+03
    0.08000   0.02000   0.53558         1.13649E-02         1.18738E+00        -1.71940E-02        -2.65809E+03
    0.09000   0.02000   0.53578         1.14788E-02         1.19957E+00        -8.24462E-03        -2.66427E+03
    0.10000   0.02000   0.53601         1.15298E-02         1.20494E+00        -3.69522E-03        -2.67020E+03
    0.11000   0.02000   0.53625         1.15527E-02         1.20692E+00        -1.99517E-03        -2.67585E+03
    0.12000   0.02000   0.53651         1.15698E-02         1.20777E+00        -2.12507E-03        -2.68125E+03
    0.13000   0.02000   0.53677         1.15952E-02         1.20898E+00        -3.40181E-03        -2.68640E+03
    0.14000   0.02000   0.53704         1.16378E-02         1.21149E+00        -5.36012E-03        -2.69134E+03
    0.15000   0.02000   0.53731         1.17025E-02         1.21586E+00        -7.67857E-03        -2.69609E+03
    0.16000   0.02000   0.53760         1.17914E-02         1.22239E+00        -1.01336E-02        -2.70068E+03
    0.17000   0.02000   0.53790         1.19052E-02         1.23118E+00        -1.25702E-02        -2.70513E+03
    0.18000   0.02000   0.53824         1.20429E-02         1.24221E+00        -1.48824E-02        -2.70947E+03
    0.19000   0.02000   0.53860         1.22028E-02         1.25535E+00        -1.70000E-02        -2.71373E+03
    0.20000   0.02000   0.53901         1.23829E-02         1.27042E+00        -1.88807E-02        -2.71793E+03
    0.21000   0.02000   0.53944         1.25805E-02         1.28720E+00        -2.05026E-02        -2.72208E+03
    0.22000   0.02000   0.53990         1.27930E-02         1.30546E+00        -2.18580E-02        -2.72620E+03
    0.23000   0.02000   0.54038         1.30177E-02         1.32495E+00        -2.29490E-02        -2.73030E+03
    0.24000   0.02000   0.54089         1.32520E-02         1.34543E+00        -2.37836E-02        -2.73440E+03
    0.25000   0.02000   0.54141         1.34934E-02         1.36666E+00        -2.43741E-02        -2.73851E+03
    0.26000   0.02000   0.54194         1.37395E-02         1.38841E+00        -2.47352E-02        -2.74263E+03
    0.27000   0.02000   0.54249         1.39881E-02         1.41046E+00        -2.48825E-02        -2.74677E+03
    0.28000   0.02000   0.54304         1.42372E-02         1.43263E+00        -2.48308E-02        -2.75094E+03
    0.29000   0.02000   0.54360         1.44848E-02         1.45470E+00        -2.45931E-02        -2.75515E+03
    0.30000   0.02000   0.54416         1.47291E-02         1.47651E+00        -2.41776E-02        -2.75939E+03
    0.31000   0.02000   0.54473         1.49684E-02         1.49787E+00        -2.35876E-02        -2.76366E+03
    0.32000   0.02000   0.54533         1.52009E-02         1.51861E+00        -2.28233E-02        -2.76798E+03
    0.33000   0.02000   0.54595         1.54249E-02         1.53857E+00        -2.18853E-02        -2.77233E+03
    0.34000   0.02000   0.54661         1.56386E-02         1.55757E+00        -2.07772E-02        -2.77673E+03
    0.35000   0.02000   0.54732         1.58405E-02         1.57546E+00        -1.95097E-02        -2.78116E+03
    0.36000   0.02000   0.54805         1.60288E-02         1.59210E+00        -1.81028E-02        -2.78562E+03
    0.37000   0.02000   0.54880         1.62025E-02         1.60735E+00        -1.65818E-02        -2.79012E+03
    0.38000   0.02000   0.54956         1.63605E-02         1.62112E+00        -1.49722E-02        -2.79465E+03
    0.39000   0.02000   0.55031         1.65020E-02         1.63332E+00        -1.32946E-02        -2.79921E+03
    0.40000   0.02000   0.55107         1.66264E-02         1.64388E+00        -1.15607E-02        -2.80378E+03
    0.41000   0.02000   0.55182         1.67333E-02         1.65274E+00        -9.77387E-03        -2.80838E+03
    0.42000   0.02000   0.55259         1.68220E-02         1.65983E+00        -7.93399E-03        -2.81299E+03
    0.43000   0.02000   0.55337         1.68920E-02         1.66511E+00        -6.03976E-03        -2.81761E+03
    0.44000   0.02000   0.55418         1.69428E-02         1.66852E+00        -4.09223E-03        -2.82223E+03
    0.45000   0.02000   0.55501         1.69739E-02         1.67001E+00        -2.09652E-03        -2.82685E+03
    0.46000   0.02000   0.55586         1.69848E-02         1.66952E+00        -6.00137E-05        -2.83147E+03
    0.47000   0.02000   0.55671         1.69751E-02         1.66702E+00         2.01054E-03        -2.83608E+03
    0.48000   0.02000   0.55757         1.69446E-02         1.66247E+00         4.11176E-03        -2.84067E+03
    0.49000   0.02000   0.55843         1.68929E-02         1.65583E+00         6.24682E-03        -2.84525E+03
    0.50000   0.02000   0.55931         1.68197E-02         1.64706E+00         8.42575E-03        -2.84980E+03
    0.51000   0.02000   0.56023         1.67244E-02         1.63610E+00         1.06618E-02        -2.85432E+03
    0.52000   0.02000   0.56118         1.66065E-02         1.62290E+00         1.29673E-02        -2.85881E+03
    0.53000   0.02000   0.56219         1.64651E-02         1.60739E+00         1.53485E-02        -2.86325E+03
    0.54000   0.02000   0.56324         1.62995E-02         1.58950E+00         1.78005E-02        -2.86765E+03
    0.55000   0.02000   0.56432         1.61091E-02         1.56917E+00         2.03080E-02        -2.87200E+03
    0.56000   0.02000   0.56541         1.58934E-02         1.54636E+00         2.28515E-02        -2.87628E+03
    0.57000   0.02000   0.56649         1.56521E-02         1.52103E+00         2.54131E-02        -2.88049E+03
    0.58000   0.02000   0.56755         1.53852E-02         1.49317E+00         2.79824E-02        -2.88463E+03
    0.59000   0.02000   0.56860         1.50925E-02         1.46275E+00         3.05589E-02        -2.88869E+03
    0.60000   0.02000   0.56964         1.47740E-02         1.42976E+00         3.31486E-02        -2.89266E+03
    0.61000   0.02000   0.57069         1.44296E-02         1.39417E+00         3.57606E-02        -2.89653E+03
    0.62000   0.02000   0.57175         1.40589E-02         1.35596E+00         3.84055E-02        -2.90030E+03
    0.63000   0.02000   0.57283         1.36615E-02         1.31508E+00         4.10931E-02        -2.90395E+03
    0.64000   0.02000   0.57392         1.32370E-02         1.27150E+00         4.38307E-02        -2.90748E+03